96
Lattice="1.7999999753898355 0.0 0.0 1.1021821041632383e-16 1.7999999753898355 0.0 1.6122474890343369e-16 1.6122474890343369e-16 2.632999964000798" Properties=species:S:1:pos:R:3 ipi_comment="Step:           0  Bead:       0 positions{ase}  cell{ase}" pbc="T T T"
C        2.87555896       0.48324599       0.04133300
C        1.33891798       1.08303899       4.18636894
C        1.77934998       1.33125398       0.97699799
C        0.86911399       2.38523097       1.40487098
C        0.89183999       1.84562997       0.07732600
C        0.48958799       1.96809197       3.77972995
C       -0.42032199       2.42112597       1.78657298
C       -0.44814699       2.73681996       2.22352497
C       -1.00163699       2.55661697       0.47547699
C       -1.77555798       0.84766899       3.71275595
C       -1.98206497       1.77922298       1.70610798
C       -2.13667597      -0.31131600       1.18148198
C       -2.10922997       0.19110900      -0.26983800
C       -1.65529298      -1.34961198       3.52686295
C       -2.22763197      -1.28541298       2.53070097
C       -0.10767200      -2.10432897       1.16095398
C       -1.21786798      -1.95911397       0.09750100
C       -0.65219099      -1.93383697       4.03361494
C       -0.36478600      -2.06078497       2.48903597
C        2.16171897      -2.02707097       2.15062897
C        0.92140099      -1.96095397       0.11773000
C        2.78070996      -1.13376098       3.21539996
C        1.60756398      -1.48322298       1.81566798
C        2.92305596      -1.24842298       1.85494497
C        2.64486496       0.16549200       4.17885094
C        1.93663497       1.64371398       7.06252290
C        2.45450197       0.83608599       5.88880392
C        1.49978998       1.88227197       5.93266492
C        1.15933898       2.58960696       4.61041294
C       -0.47072399       2.45039797       7.72828289
C       -0.74736599       2.35505497       5.85257992
C       -0.60973899       2.34666797       6.56525991
C       -0.69621999       2.33049097       4.62362994
C       -2.18071997       1.13828398       8.06474989
C       -1.17010798       1.75699798       5.64341592
C       -1.86811397      -0.07224800       5.43920593
C       -2.75928096       0.19496600       4.02890794
C       -2.68186896      -1.29153298       7.89238189
C       -2.72293696      -0.97347099       6.00327592
C       -1.83484797      -1.26237698       5.84211092
C       -0.85518299      -2.93968696       4.23425694
C        0.05115000      -3.50092795       8.14102889
C       -0.02687800      -2.45968497       6.93845891
C        0.90858699      -1.18897198       5.27685293
C        0.00762000      -2.23579897       3.84125495
C        2.16367097      -1.91248897       8.11904489
C        2.20547197      -1.90085997       6.32081791
C        2.35336397      -0.21792800       5.86822392
C        2.26504297       0.05730600       9.46807087
C        2.51798297       1.59580098      12.81867682
C        1.97716097       1.91098097      10.75959485
C        2.01896797       2.05849697      10.83404285
C       -0.06987600       3.09579496       9.71012787
C        0.14793500       2.19875997      12.18850083
C        0.30148700       1.42684698      11.04154885
C       -1.51907298       1.83355197       9.20428887
C       -0.83911599       1.91363897       8.93649488
C       -2.01011297       0.19649900      12.26604783
C       -2.00938797       1.90500297      10.62281385
C       -2.98244396       0.33446700       9.83597387
C       -3.23424396      -0.30971500       8.89991688
C       -1.71468398      -1.86982997      11.90619184
C       -2.99556996      -0.76515399      10.55000286
C       -1.35474698      -1.70984298       9.78574387
C       -0.66574699      -1.25792098       9.54688487
C        0.32287500      -2.20742597      12.41881283
C       -0.96429499      -2.29600997      10.45798086
C        1.80211398      -1.43633998       9.66542987
C        2.16656897      -2.80812096       9.20677087
C        2.01638597      -1.40302698      12.83335282
C        2.72685496      -0.12024300      11.44992284
C        2.52649197       0.27388900      10.58307986
C        2.53989097       1.18491298      12.57370883
C        2.39317697       1.61863298      15.80574178
C        1.78780998       1.15898698      15.16976579
C        1.45516898       2.09899997      13.85157581
C        0.62122499       0.48745799      12.45691683
C        0.27003100       1.45436498      17.20662476
C        0.28130400       2.09780597      14.99404979
C       -0.66283399       1.22670298      13.82712881
C       -1.17290098       2.20507797      13.54311781
C       -2.82492396       0.83477299      16.32520978
C       -1.81248298       0.55959099      14.76023580
C       -1.66219698      -0.30953200      13.90996281
C       -1.99786297      -0.03627100      13.21828182
C       -2.32371797      -1.48994498      16.76845377
C       -1.68423498      -0.33734700      15.35972779
C       -1.04368199      -2.01938397      13.73250781
C       -1.25806798      -1.29213598      11.80409684
C       -0.04656400      -1.93134297      16.32960478
C       -0.26779000      -2.13790197      14.67140980
C        1.08168399      -1.23029898      13.79847481
C        2.30907297      -2.37059797      14.63988580
C        1.88120597      -1.48015398      16.31166578
C        1.79992498      -1.80865598      14.66165280
C        3.14498196       0.58824699      14.91731780
96
Lattice="1.7999999753898355 0.0 0.0 1.1021821041632383e-16 1.7999999753898355 0.0 1.6122474890343369e-16 1.6122474890343369e-16 2.632999964000798" Properties=species:S:1:pos:R:3 ipi_comment="Step:           4  Bead:       0 positions{ase}  cell{ase}" pbc="T T T"
C        2.87148233       0.50939092       0.05614622
C        1.33834967       1.06323546       4.15144660
C        1.80875655       1.32047846       0.98544208
C        0.84606158       2.38724984       1.42545935
C        0.90824873       1.83231969       0.06649715
C        0.47038543       2.00321615       3.74614211
C       -0.20440157       0.45629289      -1.05196775
C       -0.58289584       4.65962359       5.14552918
C       -1.06069598       2.58237470       0.40830063
C       -1.76317639       0.86332988       3.68547233
C       -2.02693504       1.75501384       1.69782577
C       -2.14046761      -0.31336860       1.17864572
C       -2.10522896       0.19782685      -0.24591667
C       -1.65934803      -1.35029163       3.52845417
C       -2.23364603      -1.27585753       2.51037579
C       -0.10373490      -2.09221720       1.13573511
C       -1.22208882      -1.94189706       0.10007010
C       -0.80819286      -1.83146156       4.08843755
C       -0.36270416      -2.05747150       2.49700373
C        2.22863369      -2.15476346       2.21688568
C        0.91169191      -1.96016481       0.13117349
C        2.79096896      -1.13547013       3.23197190
C        1.50445434      -1.38540773       1.74848965
C        2.95479925      -1.22049026       1.85696677
C        2.66615849       0.14854024       4.15054047
C        1.97384310       1.55494203       6.70704018
C        2.48854237       0.89942245       5.89870472
C        1.43828270       1.89388772       5.84937447
C        1.16372308       2.58946273       4.64720270
C       -0.91428744       2.47480997       7.77938147
C       -0.67517846       2.60281624       5.54476532
C       -0.51507643       2.41094322       6.74835350
C       -0.71467447       2.34121294       4.59405472
C       -2.05631915       1.29019898       8.30810310
C       -1.36709764       1.47154761       5.51466959
C       -1.87598533      -0.04954053       5.42454044
C       -2.76736033       0.18889323       4.03932412
C       -2.66662726      -1.28313947       7.88938873
C       -2.81503523      -0.94085065       6.02961971
C       -1.75981132      -1.30803780       5.83421257
C       -0.90117760      -3.01194646       4.25448202
C        0.05022184      -3.49182874       8.14130504
C       -0.03997419      -2.47240300       6.93988701
C        0.91897696      -1.19680035       5.28666985
C        0.22240266      -2.30536529       3.78671748
C        2.49775794      -5.05070708       3.07893217
C        2.20028135      -1.91150409       6.22388249
C        2.35322873      -0.25095954       5.88307443
C        1.01848655      -2.76221466      11.24997125
C        1.60837861      37.77222200      29.62486328
C     -146.99243390    -510.25242787    -343.23418657
C      114.87336988     521.52633614     356.97528376
C        1.97919681       3.43721423      11.04528194
C        5.71366470       3.93062922       9.30807464
C       16.96825901      10.35717557      13.12964430
C       -5.96291017       1.07127430       8.79492593
C        3.18668274       2.82854307       8.51801621
C       -2.05644942       0.24684736      12.13019692
C       -2.65585022       1.98297740      10.74850122
C       -2.95760511       0.36868578       9.84039240
C       -3.24861018      -0.34961118       8.88763782
C       -1.81828005      -2.12445196      11.83213728
C       -3.02670895      -0.75101854      10.52524290
C       -1.76154622      -1.80794235       9.80813838
C       -0.41282725      -1.27508595       9.33359861
C        0.31425615      -2.19882593      12.46017951
C       -0.87449426      -2.34062238      10.64024627
C        1.45203080      -1.04810506       9.57686677
C        2.48414885      -3.52854726       9.01037846
C        2.14552054      -0.88956720      12.65401085
C        4.40494334      -8.34637522      11.73969826
C       15.11371832      -2.74356451      12.16092812
C        5.28863466     -37.57682620       5.06534702
C        2.41927625       1.70672656      15.64682947
C        1.88844455       1.52448261      14.38718230
C        0.36439731       3.31545574      16.57520962
C       -0.29520751      -0.22075022      12.21701882
C        0.28884769       1.47471736      17.20321231
C        0.40347141       2.00735600      14.73389131
C       -0.72130742       1.21141525      13.91062810
C       -1.13034628       2.28063865      13.53602588
C       -2.82164193       0.83392141      16.29671815
C       -1.74074080       0.62953850      14.66931799
C       -1.56582604      -0.32984896      14.06305594
C       -1.92834749       0.02197060      13.23874936
C       -2.31626314      -1.49226710      16.75694092
C       -1.69657974      -0.37076291      15.38280727
C       -1.04366213      -2.06264206      13.75559132
C       -1.15452241      -1.14218424      11.86108457
C       -0.06126583      -1.93795745      16.32072483
C       -0.24584339      -2.15727669      14.69671624
C        1.10874576      -1.16215063      13.72167118
C        2.46850943      -2.56389990      14.68631498
C        1.88757599      -1.49973459      16.27829097
C        1.67353403      -1.71577314      14.72956906
C        2.70958477       0.81188618      14.65839906
96
Lattice="1.7999999753898355 0.0 0.0 1.1021821041632383e-16 1.7999999753898355 0.0 1.6122474890343369e-16 1.6122474890343369e-16 2.632999964000798" Properties=species:S:1:pos:R:3 ipi_comment="Step:           8  Bead:       0 positions{ase}  cell{ase}" pbc="T T T"
C        2.85583337       0.54408093       0.08308165
C        1.34204248       1.02885838       4.10788384
C        1.84756812       1.30438110       0.98338934
C        0.82548222       2.38543155       1.43933381
C        0.91808895       1.81772322       0.05680500
C        0.44167919       2.03797454       3.69806493
C        0.00829243      -1.48857717      -3.85489477
C       -0.71465407       6.55638664       8.04141729
C       -1.12464097       2.60051776       0.34968940
C       -1.74284629       0.89378279       3.64044152
C       -2.06272625       1.72642529       1.67979294
C       -2.14167318      -0.31372394       1.17271699
C       -2.09701595       0.19596565      -0.20489327
C       -1.70248318      -1.33169876       3.51635198
C       -2.25984830      -1.25125516       2.43638990
C       -0.10990234      -2.08082289       1.09279410
C       -1.22043718      -1.91916368       0.10996789
C       -0.99826622      -1.67648643       4.19941544
C       -0.36045914      -2.05219112       2.51072648
C        2.34319671      -2.35468740       2.32994078
C        0.89915536      -1.95648205       0.15958032
C        2.80103973      -1.13029880       3.25623843
C        1.34076555      -1.23137085       1.62940300
C        3.00947373      -1.17170885       1.84960106
C        2.68199345       0.12718770       4.12075903
C        2.02282530       1.47614736       6.46173786
C        2.57580329       0.95228137       5.88377672
C        1.33458468       1.94918002       5.70029465
C        1.19026774       2.59970437       4.69336422
C       -1.36308764       2.48904411       7.87976109
C       -0.57951814       2.97553783       5.30356162
C       -0.39806661       2.47106370       6.99630705
C       -0.74327713       2.31876687       4.41479388
C       -1.91624743       1.45357067       8.54241742
C       -1.61213973       1.11580438       5.38182726
C       -1.88155534       0.00501453       5.40581227
C       -2.78524081       0.17325031       4.05210625
C       -2.65806450      -1.26622978       7.88590359
C       -2.98933370      -0.90051350       6.09088526
C       -1.60964226      -1.39756959       5.82749854
C       -0.96478549      -3.14227722       4.28674247
C        0.05207592      -3.46775614       8.12896739
C       -0.04882682      -2.49424390       6.95303940
C        0.94404206      -1.21042842       5.30896086
C        0.54004372      -2.40998070       3.70146545
C        2.93503867      -9.20444089      -3.56825343
C        2.18753175      -1.90177265       6.08893998
C        2.34774463      -0.34086897       5.88420608
C       -0.70508254      -3.75127627      14.93838542
C        0.70782375      73.58873037      46.26384803
C     -294.47995725   -1017.32041572    -693.70614798
C      226.60500379    1035.82608387     699.67282816
C        4.00390574       3.75984133      12.35046198
C       11.21959935       5.64489303       6.45507769
C       33.46916640      19.19864142      15.19695840
C      -11.86685039       0.03730161       8.53876879
C        8.67474141       4.01746100       7.95426408
C       -2.09945733       0.31119686      11.92217578
C       -3.30130977       2.04720195      10.87878081
C       -2.92446434       0.44450895       9.86945722
C       -3.27103752      -0.40984232       8.83667393
C       -2.02907928      -2.54740191      11.77287830
C       -3.06435375      -0.74409590      10.49507708
C       -2.19424447      -1.89985669       9.80670939
C       -0.13760920      -1.28611329       9.12157643
C        0.30753466      -2.15071536      12.52214955
C       -0.77084780      -2.42097040      10.81918183
C        1.10916186      -0.72199004       9.48384288
C        3.16816403      -4.98665135       8.57206000
C        2.26125154      -0.38274687      12.47914999
C        6.06361170     -16.48962068      12.02414330
C       27.57589137      -5.73097699      13.72326911
C        8.01003161     -75.95293186      -2.36831547
C        2.45791552       1.80197805      15.51055695
C        1.93560250       1.91254569      13.58745065
C       -0.68302211       4.53264637      19.28360512
C       -0.74265277      -0.25903312      12.38452620
C        0.30889950       1.50817443      17.19366549
C        0.49665311       1.88891614      14.46243232
C       -0.75644370       1.15508375      13.99758665
C       -1.09585335       2.39007026      13.51838387
C       -2.80456309       0.82086883      16.25564166
C       -1.68816499       0.79098294      14.61099174
C       -1.37132695      -0.48095905      14.38343677
C       -1.95089599       0.15771157      13.10401447
C       -2.30086725      -1.48437051      16.73540914
C       -1.71801513      -0.44104555      15.47357093
C       -1.06036558      -2.11900237      13.78125992
C       -1.40459391      -1.45731290      11.51213085
C       -0.07152646      -1.94307824      16.29897731
C       -0.21234895      -2.18047252      14.75486597
C        1.13010824      -1.07821036      13.61354730
C        2.70719214      -2.84077493      14.73590176
C        1.88155021      -1.52820076      16.22854712
C        1.48163306      -1.54107449      14.82926850
C        2.30920097       1.00543478      14.41299978
96
Lattice="1.7999999753898355 0.0 0.0 1.1021821041632383e-16 1.7999999753898355 0.0 1.6122474890343369e-16 1.6122474890343369e-16 2.632999964000798" Properties=species:S:1:pos:R:3 ipi_comment="Step:          12  Bead:       0 positions{ase}  cell{ase}" pbc="T T T"
C        2.83121021       0.58424932       0.12039096
C        1.34492280       0.99228894       4.06262426
C        1.89099211       1.28456135       0.97049769
C        0.80546801       2.37904539       1.44502159
C        0.92228310       1.80751482       0.05566029
C        0.42046400       2.06696998       3.64503025
C        0.21860982      -3.41405062      -6.62981211
C       -0.84516768       8.43475257      10.90859918
C       -1.18695768       2.60784206       0.30297979
C       -1.72350419       0.93687667       3.59013229
C       -2.08952440       1.69355708       1.65325841
C       -2.14062608      -0.31382811       1.16484841
C       -2.08812629       0.18539858      -0.14529672
C       -1.80633325      -1.28546544       3.45256842
C       -2.30202544      -1.21138454       2.31636023
C       -0.12661381      -2.07035239       1.04478443
C       -1.21604842      -1.88986627       0.12421692
C       -1.11752411      -1.56100163       4.39574486
C       -0.34620257      -2.05109681       2.52986489
C        2.45793046      -2.54768066       2.44299735
C        0.88911190      -1.94769260       0.19923731
C        2.81023933      -1.11541602       3.28251808
C        1.18568690      -1.08191386       1.50018110
C        3.05764560      -1.12477685       1.84422827
C        2.68968291       0.10354862       4.08916132
C        2.01913993       1.45956743       6.35471755
C        2.76641995       0.91054702       5.78793718
C        1.19746087       2.01065275       5.54002097
C        1.21726184       2.63569305       4.70893012
C       -1.81207782       2.49653750       7.98714775
C       -0.47586550       3.38278197       5.14535630
C       -0.28323965       2.53848501       7.22302800
C       -0.79277281       2.25334475       4.16882144
C       -1.77988865       1.61410470       8.78169508
C       -1.83510399       0.84614679       5.23539258
C       -1.90592668      -0.01399111       5.40301369
C       -2.80244093       0.15573764       4.06631867
C       -2.65783115      -1.24177254       7.87762624
C       -3.15607812      -0.87030189       6.16385776
C       -1.45723833      -1.48879998       5.81851455
C       -1.01964646      -3.27279252       4.31515779
C        0.05372566      -3.42773573       8.10253175
C       -0.05763553      -2.52085059       6.97892460
C        0.98001085      -1.23062832       5.33703536
C        0.84058465      -2.51240057       3.61571233
C        3.36797072     -13.31683575     -10.14929401
C        2.16779720      -1.87360640       5.95072828
C        2.33522240      -0.44975951       5.87429066
C       -2.40377733      -4.73683989      18.58166152
C       -0.18376946     109.04881919      62.73725384
C     -440.49979327   -1519.34243599   -1040.69047026
C      337.22476667    1545.00789886    1038.96009871
C        6.00891062       4.07977002      13.64220536
C       16.67024642       7.34183031       3.63054414
C       49.80586889      27.95212350      17.24370011
C      -17.71204802      -0.98637987       8.28515946
C       14.10871781       5.19483189       7.39606838
C       -2.14345224       0.38610004      11.68550042
C       -3.93563199       2.09332941      10.99912276
C       -2.88997002       0.54529438       9.90249070
C       -3.29110175      -0.47399684       8.77371356
C       -2.27068224      -3.02932388      11.73100738
C       -3.10612185      -0.74304739      10.45979194
C       -2.62518264      -1.98803782       9.80474724
C        0.14157475      -1.30263282       8.91299577
C        0.30362401      -2.09126370      12.60070932
C       -0.65444197      -2.52836157      10.97666839
C        0.75934729      -0.40150399       9.38965849
C        3.84526075      -6.43038252       8.13806129
C        2.36188655       0.11492749      12.32202036
C        7.70577422     -24.55183054      12.30575775
C       39.91405004      -8.68866095      15.27006283
C       10.70434722    -113.94714675      -9.72800361
C        2.49456349       1.89506562      15.37551732
C        1.96305203       2.30692719      12.79298348
C       -1.71971875       5.73566426      21.96478278
C       -0.73202236       0.34833957      12.93891869
C        0.32976927       1.54379946      17.18213167
C        0.59938821       1.77449317      14.18990224
C       -0.73517948       1.11393599      14.05160558
C       -1.05756918       2.50730787      13.49934603
C       -2.77327075       0.79664082      16.20222424
C       -1.69155874       0.96488842      14.59224281
C       -1.15322483      -0.66818899      14.64448669
C       -1.99015138       0.29617867      12.99803080
C       -2.27778090      -1.46519960      16.70312960
C       -1.77358699      -0.51113109      15.64883748
C       -1.08243420      -2.18210404      13.80999933
C       -2.07567919      -2.32441437      10.76926547
C       -0.07833290      -1.95003158      16.26906183
C       -0.16678606      -2.21581242      14.83702201
C        1.15449682      -0.98226921      13.47704849
C        2.93558157      -3.10475803      14.79245866
C        1.86614117      -1.56290500      16.16901362
C        1.29924268      -1.37708338      14.93227859
C        1.92075529       1.18603776      14.17606281
96
Lattice="1.7999999753898355 0.0 0.0 1.1021821041632383e-16 1.7999999753898355 0.0 1.6122474890343369e-16 1.6122474890343369e-16 2.632999964000798" Properties=species:S:1:pos:R:3 ipi_comment="Step:          16  Bead:       0 positions{ase}  cell{ase}" pbc="T T T"
C        2.80147777       0.62676889       0.16527150
C        1.34566496       0.95997942       4.02250325
C        1.93565941       1.26430631       0.94902466
C        0.78583498       2.36812887       1.44194338
C        0.92198904       1.80166368       0.06529659
C        0.41629181       2.09097421       3.58673323
C        0.42683474      -5.32036610      -9.37712569
C       -0.97438195      10.29444200      13.74725774
C       -1.24860018       2.60445910       0.26810904
C       -1.70295921       0.99428244       3.54303524
C       -2.10794120       1.65782087       1.61866197
C       -2.13836350      -0.31409066       1.15603826
C       -2.07823301       0.16924246      -0.07237802
C       -1.93192834      -1.23360221       3.36515220
C       -2.35043511      -1.16136420       2.16734174
C       -0.15597652      -2.06271249       1.00325770
C       -1.21221379      -1.85405497       0.13926006
C       -1.20876130      -1.47791843       4.63017341
C       -0.31572696      -2.05656321       2.55413661
C        2.56903346      -2.72510430       2.56028259
C        0.88709320      -1.93261592       0.24318161
C        2.81958251      -1.09528269       3.30135097
C        1.03947345      -0.93806304       1.36581676
C        3.09298024      -1.08631597       1.84670108
C        2.68908921       0.08289720       4.05612546
C        1.97598000       1.48085174       6.30143067
C        3.00949650       0.81030136       5.65638730
C        1.05444253       2.00913927       5.45778519
C        1.23782708       2.74075897       4.63573305
C       -2.24206562       2.51839886       8.07225195
C       -0.36959450       3.77777538       4.99119848
C       -0.18488846       2.60865875       7.44730185
C       -0.85519649       2.18697351       3.92301340
C       -1.65221001       1.75262176       9.04000375
C       -2.03476128       0.81535422       5.03034899
C       -1.95701479      -0.27426643       5.46526834
C       -2.81858162       0.14074053       4.08490207
C       -2.66519553      -1.21207464       7.85583958
C       -3.30091687      -0.84951759       6.24205070
C       -1.31266925      -1.57098104       5.81201119
C       -1.06922065      -3.38842421       4.33909944
C        0.05512779      -3.37150985       8.06724855
C       -0.06836644      -2.54645857       7.01546307
C        1.02025729      -1.25524166       5.36697158
C        1.13032885      -2.60865999       3.52198164
C        3.79659516     -17.38831295     -16.66485431
C        2.14635316      -1.83695311       5.81360361
C        2.32111060      -0.56190123       5.85686574
C       -4.08533008      -5.71204264      22.18885490
C       -1.06649146     144.15608590      79.04675195
C     -585.06675569   -2016.36941888   -1384.22235501
C      446.74388092    2049.12343767    1374.87151614
C        7.99408912       4.39661484      14.92104690
C       22.06667711       9.02189575       0.83409663
C       65.98002386      36.61850985      19.27007707
C      -23.49908688      -1.99987589       8.03407350
C       19.48861037       6.36047572       6.84344423
C       -2.19268435       0.46125347      11.43689425
C       -4.55770820       2.12857275      11.11103147
C       -2.85552164       0.65543497       9.93425209
C       -3.30801539      -0.53356643       8.71821874
C       -2.50645664      -3.52611577      11.70395588
C       -3.14661990      -0.73682185      10.41931821
C       -3.08289136      -2.04112864       9.77231107
C        0.40986111      -1.34269068       8.69336914
C        0.29148080      -2.02405433      12.68378382
C       -0.53056269      -2.64084200      11.14602127
C        0.42123128      -0.07232754       9.30361249
C        4.51563479      -7.85977608       7.70839177
C        2.45089597       0.61061869      12.18107042
C        9.33159749     -32.53382274      12.58457018
C       52.12944603     -11.61691643      16.80146620
C       13.37185482    -151.56332538     -17.01446405
C        2.52395692       1.98091084      15.23272038
C        1.98664556       2.68186792      12.01680025
C       -2.74610201       6.92671645      24.61928680
C       -0.70259029       0.92219053      13.42314789
C        0.35158157       1.57913224      17.16960952
C        0.69158896       1.67198912      13.91852315
C       -0.63211887       1.12326169      14.12421936
C       -1.01447612       2.62841447      13.48040899
C       -2.72894467       0.76177683      16.13847773
C       -1.77107841       1.12591434      14.61335757
C       -0.91682384      -0.88093029      14.86755651
C       -2.05976588       0.42861266      12.89891274
C       -2.24972668      -1.44058354      16.66585242
C       -1.86096721      -0.56966281      15.87218254
C       -1.09652197      -2.23709114      13.83649651
C       -2.71278143      -3.18990266      10.05316008
C       -0.08224083      -1.95915042      16.23430738
C       -0.11665136      -2.25495019      14.93411746
C        1.18205764      -0.88952728      13.33180258
C        3.15784128      -3.36011501      14.85329104
C        1.84439019      -1.60220052      16.10506455
C        1.11767360      -1.21666518      15.02190583
C        1.55511224       1.37029822      13.93857044
96
Lattice="1.7999999753898355 0.0 0.0 1.1021821041632383e-16 1.7999999753898355 0.0 1.6122474890343369e-16 1.6122474890343369e-16 2.632999964000798" Properties=species:S:1:pos:R:3 ipi_comment="Step:          20  Bead:       0 positions{ase}  cell{ase}" pbc="T T T"
C        2.77428287       0.66596548       0.21178199
C        1.34503826       0.93128968       3.98776630
C        1.97452892       1.24952712       0.92490889
C        0.76708795       2.35295495       1.42880167
C        0.91820259       1.80005959       0.08694051
C        0.43066818       2.11215677       3.52285623
C        0.63298802      -7.20771543     -12.09710595
C       -1.10231065      12.13562917      16.55767417
C       -1.31049706       2.58972170       0.24582558
C       -1.68264098       1.06357081       3.49315400
C       -2.11852336       1.62064646       1.57521185
C       -2.13579536      -0.31048836       1.14531345
C       -2.06606566       0.15357328       0.00217097
C       -2.05503454      -1.18231113       3.28890447
C       -2.39981080      -1.11317367       2.01281532
C       -0.19886764      -2.06009036       0.97676165
C       -1.21298697      -1.81226088       0.15119518
C       -1.29680342      -1.40937796       4.81261981
C       -0.27123420      -2.06991007       2.58184348
C        2.67129096      -2.88651283       2.68580520
C        0.89803062      -1.91174913       0.28394967
C        2.83138366      -1.07504450       3.30543123
C        0.89895171      -0.79801974       1.22975746
C        3.11698562      -1.05589688       1.85989470
C        2.68064309       0.07136696       4.02546341
C        1.93415157       1.50368694       6.25205930
C        3.24813310       0.69489971       5.52422599
C        0.90946233       1.95522030       5.43334835
C        1.25426515       2.90113998       4.50494832
C       -2.65374966       2.54008044       8.15417332
C       -0.25927384       4.15459883       4.83256088
C       -0.09904705       2.67763797       7.67150638
C       -0.92774003       2.12368115       3.68115492
C       -1.53496805       1.88487988       9.29650231
C       -2.23263001       0.84952803       4.80753568
C       -2.01701291      -0.59461856       5.56859413
C       -2.83700494       0.12542356       4.09400039
C       -2.67620567      -1.18276479       7.81091628
C       -3.42678690      -0.83311738       6.32722786
C       -1.16738904      -1.65982448       5.84930857
C       -1.11654401      -3.48946190       4.35980712
C        0.05794507      -3.30669745       8.03282760
C       -0.08151994      -2.56210913       7.05399615
C        1.05592142      -1.28026781       5.39566600
C        1.41614682      -2.69861213       3.41742012
C        4.22095517     -21.41928256     -23.11559058