<simulation>
   <prng>
      <seed>32415</seed>
      <state>[{"bit_generator": "MT19937", "state": {"key": [2843024049, 1701292628, 1164110633, 4043871990, 500732910, 3593146250, 234466515, 4166412611, 392135212, 2422537253, 2031062440, 876994317, 4202185749, 1254917996, 4125840146, 741093587, 3419848183, 1381374611, 41235146, 3678560186, 4107372460, 201325832, 3539586264, 3739733330, 2052834776, 2965709961, 3294776486, 3125019248, 2897128380, 2904632258, 1849677510, 440669600, 3640492554, 774143892, 3116163863, 4202533066, 1181938548, 1361223700, 81649231, 2461492736, 2530595524, 3022286896, 4051163104, 3372353889, 3782756413, 2660481949, 3450330476, 33340710, 1419429608, 3515944243, 706656969, 1381771833, 4250673251, 1190430448, 794907372, 966289522, 633361523, 223682718, 1624588371, 2282180534, 3173972292, 1935841851, 361418265, 1867889262, 1125199005, 206493190, 2459660965, 1933333235, 3194465565, 2402534309, 2406110183, 1117926804, 3253073700, 611322298, 1947560354, 1615912241, 970130318, 1850112281, 340806419, 172585298, 3432930544, 402284526, 374893812, 1963618610, 541058760, 3428840003, 1998280065, 2746998237, 446777704, 1627263964, 28615748, 3201887195, 2876626406, 997103665, 2828190671, 708607048, 1032681904, 2311512833, 95075251, 3373313279, 623986724, 1429361309, 3370883979, 3744031856, 1334219636, 3817674246, 4240959412, 627047123, 1394629369, 1880442369, 2226406319, 643214892, 1332242330, 829909489, 2674932579, 4032031470, 3813179253, 418486020, 2854343250, 497519904, 496807290, 2933373861, 191091873, 3836510901, 1865628972, 757466772, 2853835708, 1752387503, 3023907808, 1775086996, 2809434812, 3692444577, 3201560436, 4280993989, 1276966755, 3832194097, 4000635755, 214150630, 3950707458, 4290717804, 3659162056, 889260855, 2009459708, 3864518831, 1835796703, 4137879102, 4270933133, 354204941, 322499834, 1403146915, 2037035072, 3326126071, 570319750, 1478217959, 1766564367, 3395735688, 716256145, 3207097146, 2782304325, 573346612, 1652835878, 1915888203, 2341661963, 3228153853, 3046247630, 3005531981, 3722163154, 164771653, 4292545166, 723529779, 2184678484, 1372675258, 1855357693, 3225678910, 3141005363, 1802735741, 36949659, 4265696266, 1347256040, 1176836671, 1245790358, 916318340, 2084956272, 3015764376, 1750425378, 3517177145, 1222965998, 3563465420, 1208713246, 294257104, 1049882723, 1424002698, 2683701551, 4035924105, 1154106264, 2954669092, 239865939, 2633696175, 712944575, 2947050280, 4121360894, 2175961346, 2577516460, 1018101733, 3940482265, 477130067, 3767100680, 4290947290, 1646058363, 2672583867, 1938787096, 1455584406, 155035690, 546159745, 4176173274, 1253250721, 3818047606, 906807281, 603377484, 1134869575, 174129077, 4022258902, 3133752737, 749285549, 2440708402, 159981984, 3137950639, 1593965142, 2522154790, 1568316230, 4289840462, 1622546403, 1624963688, 3218195653, 4239479577, 278448278, 3899536336, 3945386035, 2452143789, 4240081880, 2041632528, 1368176799, 985773571, 2323905968, 3443081365, 880022656, 2394031368, 2423631434, 1215735033, 4075875741, 2802224164, 1081956528, 32190397, 2581588483, 3151867673, 3181094054, 3514147077, 4197033296, 2779158294, 2314009254, 1239303772, 57776164, 1398535745, 3182215502, 2645172510, 3943900485, 2964191437, 1499038357, 2642157516, 1472640845, 1297921306, 2300464252, 720051363, 452166380, 2542168976, 3146963927, 500634224, 1843314569, 2559859932, 2277895111, 2885942216, 1181486716, 2203610890, 3371528581, 1851006625, 1048879925, 3169134570, 391926763, 2118335810, 1404114205, 3342000556, 1050275471, 637236159, 1616296079, 3871750140, 862169101, 81919676, 3403007907, 724536492, 1488212077, 1311816506, 2102845937, 2568490372, 2642478791, 2530265930, 754465884, 957628998, 3343678313, 3082146821, 3497507279, 659468061, 2889269162, 3574859834, 4199095255, 2208278678, 2716430620, 3445052836, 533873176, 2631985102, 3063238087, 1097938430, 2947075073, 1513206329, 2925947898, 2051417985, 1672276929, 2530971128, 3246690724, 587768040, 1882374359, 536066494, 1331277286, 1523035530, 509012542, 1860396855, 2344825066, 1864631430, 3882582528, 459428523, 3116756986, 2916681078, 342980828, 2536156124, 3657116213, 3235300532, 1469234266, 3923199044, 715144763, 1182383924, 4190962220, 3857768378, 1848568852, 2982722391, 1065836198, 601957262, 2247931581, 3395929281, 2881142383, 1672832568, 508005473, 2388482817, 3816548636, 2840414262, 538833819, 3527289337, 462491342, 413930099, 628992004, 2567174535, 2025810920, 1833552939, 3542447490, 1337948883, 3340129069, 1256587308, 4071708629, 1780681698, 3354575471, 3608949808, 822246233, 910276104, 1074270792, 2641772475, 893743783, 3443770799, 200411250, 1873988527, 695520161, 1992147834, 3747553327, 465883869, 3230673344, 1874464244, 2967004657, 1391525638, 3090522723, 3417575854, 129932004, 3754063215, 1622906498, 1174171708, 3793460303, 522922228, 3154387352, 2743784617, 473662167, 1646577145, 1129468111, 339164255, 3643941687, 793775870, 2419772990, 2088841843, 1209895839, 2975858035, 2057975057, 1485740457, 1458763060, 569914705, 2125526365, 463673876, 3727957040, 3102715099, 3908283708, 715742450, 968502976, 2286892916, 1967503469, 129639337, 3283302058, 4204318500, 784276382, 71607616, 249684043, 2141138013, 1713935595, 3534016109, 262438626, 1316530114, 1011676960, 4184546417, 2167939468, 1292636642, 2762254447, 3041017301, 2748405290, 1302726102, 1763390992, 1028720534, 3480678408, 190835770, 383360465, 3547077745, 4233037712, 3543262092, 3299059385, 873801706, 3095092258, 1986808253, 1604040946, 3548139554, 4008291728, 2125299570, 272004709, 3254492356, 3921271051, 276240840, 2932190593, 3931236242, 212639391, 2924792646, 3773207545, 2343562354, 958995758, 1171684126, 85340215, 188547071, 2715975595, 864953039, 87481231, 2044082538, 3030578997, 368209092, 676503665, 1680930342, 3172267997, 1861407903, 3455900398, 2603908, 2591218403, 1100870584, 204258015, 3386160210, 1736958711, 1619843896, 2699916628, 345750677, 1578342620, 1426564696, 271200547, 250275327, 3302012182, 3253978582, 1736349683, 3669148026, 3996753730, 1623766244, 2427826947, 559460480, 153253353, 1376115171, 3111165548, 4009899026, 2343769601, 3176960970, 2412565185, 2380655532, 2083579402, 308344815, 4194861050, 1352361871, 200940030, 3189951131, 1587236648, 1624717360, 3556421151, 2520669879, 84525398, 1534399568, 1600451140, 1871019487, 2511516289, 108380495, 7254531, 3728098203, 2628619535, 785214191, 1680213312, 3688787590, 3139612374, 4102178824, 4232791724, 3324396320, 3159950767, 707036102, 3988000725, 1085912660, 1743905321, 2429259163, 4159562158, 4033798074, 2812800482, 3281669103, 3075431609, 3743109082, 1652487861, 3838925646, 215730393, 541801880, 1426071823, 3162935874, 3370323579, 3699958839, 3929295614, 2704042801, 4041442403, 22561245, 2108591306, 984469534, 1298415326, 315721632, 1543448876, 948730812, 1362322886, 965573271, 2932615462, 4032287163, 3447803408, 2505163120, 3231255996, 3708394128, 779668790, 436706077, 2174718831, 2419259958, 2218337950, 1435647472, 3361521376, 1183487556, 2499157918, 3445384370, 2211736497, 2969996975, 3293810985, 3898849114, 97639932, 3294835485, 2840489209, 1804882823, 2604857842, 1891693057, 3347590015, 3123642611, 32482446, 2818875335, 1412934682, 163428954, 2927311448, 4119043243, 4051073688, 1635426758, 590154564, 826576030, 1364436440, 2856316795, 108945553, 4187598718, 3005822401, 1979526020, 2918280027, 3396631349, 1539159441, 2891743899, 101067817], "pos": 137}}]</state>
   </prng>
   <output prefix='simulation'>
      <properties shape='(5)' stride='40' flush='10'> [ step, time{picosecond}, conserved, temperature{kelvin}, potential ] </properties>
      <trajectory filename='pos' stride='4' format='ase' flush='100'>positions</trajectory>
      <checkpoint stride='200'>9</checkpoint>
   </output>
   <step>1600</step>
   <total_steps>2000</total_steps>
   <ffsocket mode='unix' name='macemp'>
      <address>driver</address>
   </ffsocket>
   <system>
      <forces>
         <force forcefield='macemp'>
         </force>
      </forces>
      <ensemble>
         <temperature>  9.50044560e-04</temperature>
         <eens>  8.95648341e-04</eens>
         <hamiltonian_weights shape='(1)'> [   1.00000000e+00 ] </hamiltonian_weights>
         <time>  3.30730984e+04</time>
      </ensemble>
      <motion mode='dynamics'>
         <dynamics mode='nvt'>
            <thermostat mode='svr'>
               <ethermo>  1.28071743e+05</ethermo>
               <tau>  4.13413730e+03</tau>
            </thermostat>
            <timestep>  2.06706865e+01</timestep>
            <nmts shape='(1)'> [ 1 ] </nmts>
         </dynamics>
      </motion>
      <beads natoms='96' nbeads='1'>
         <q shape='(1, 288)'>
          [  -2.99484870e+02,  -8.35160134e+01,  -2.97070544e+02,  -3.68618527e+01,  -1.18059929e+01, 
             -4.80285450e+01,   3.32236628e+02,   1.15482177e+02,   2.96186074e+02,   1.17626403e+01, 
             -2.78992343e+01,   1.87045421e+01,  -4.47860434e+00,   3.49689246e+01,  -2.92369029e+01, 
              4.16317655e+00,   1.41751340e+00,   1.35367969e+00,   2.64029204e+01,  -1.02662410e+01, 
              5.47728966e+00,  -2.95751641e+01,   1.52805547e+01,   1.20684883e+00,  -2.47468621e+00, 
              3.45762890e+01,  -2.80564260e+01,   4.83140326e+00,   8.61090680e+00,  -5.32588326e+00, 
              3.93897493e+01,   1.37469443e+01,   6.27326783e+00,  -7.12914611e+01,  -3.39355459e+01, 
              2.28569946e+01,   1.28595977e+01,  -2.75980417e+01,   2.09343316e+01,   4.76318824e+00, 
              5.19921342e+00,  -2.00807232e+00,  -5.19456042e+00,   4.93833814e+00,  -3.38268222e+01, 
             -1.15940542e+01,  -3.12481350e+01,  -5.85645334e+00,  -1.33984197e+02,  -2.79820557e+01, 
              6.15030304e+01,   4.42977932e+00,   1.08383370e+01,  -6.21835250e+00,  -1.29703470e+01, 
             -3.30593319e+01,  -6.39221258e+00,   4.06848148e+01,   1.57259616e+01,   6.72380743e+00, 
              6.67982497e+01,  -7.96549305e+01,  -9.66468090e+01,   6.02464308e+01,   1.24500637e+02, 
             -1.43697098e+02,   1.36929878e+02,   1.02127821e+02,   1.82712472e+02,  -1.06831608e+02, 
             -1.73566833e+01,  -1.68739912e+02,   3.77396499e+01,   1.18452338e+01,   5.98149259e+00, 
              4.95950281e+01,   4.33867854e+02,  -9.77091182e+02,  -1.07051642e+04,  -7.39503055e+03, 
             -1.42322908e+04,  -1.75019286e+01,   1.70804048e+01,   2.71536771e+01,   4.11055620e+01, 
              4.19150220e+01,  -6.33781192e+01,  -3.53982209e+01,   3.97239639e+01,   1.33583058e-01, 
             -9.05473042e+00,  -6.61754176e+01,  -3.52759132e+00,  -1.43259677e+01,   2.95154621e+01, 
              4.57545585e+01,   4.48085760e+00,   6.85714610e+00,  -3.71254213e+00,  -2.00695242e+01, 
              1.41994126e+01,   2.42444195e+01,  -3.78599720e+01,  -1.23482039e+00,   9.95048238e+00, 
              4.24805965e+00,   2.85073454e-01,  -9.45279686e-01,  -3.79210252e+01,   5.71397393e-01, 
              8.25438345e+00,  -7.82817320e+00,  -2.93840119e+01,   2.55698116e+01,  -1.01584272e+01, 
             -2.98375598e+01,   2.62238229e+01,   4.41661006e+00,   3.12926123e+00,  -7.56654110e-01, 
             -3.31066764e+00,   4.77145057e+00,  -3.52671292e+01,   2.58860672e+01,  -5.77709860e+01, 
              8.54627260e+01,  -4.26454285e+01,  -7.59482984e+01,  -5.82308829e+01,  -8.24370916e+00, 
             -2.82551477e+01,  -4.12120927e+00,  -1.03074853e+02,  -1.29203217e+02,   8.80120783e+01, 
              1.57422247e+01,  -2.52253683e+01,   4.26198235e+01,  -2.28294000e+01,   1.14107024e+01, 
              2.15864903e+01,   2.75544916e+01,  -8.05531884e+00,   5.68125684e+00,   8.39558416e+01, 
              1.05538907e+02,   1.34475647e+01,  -5.28898074e+01,  -9.64035481e+01,   6.93830051e+01, 
             -9.95120229e-01,   9.80671434e+00,   3.41509560e+01,  -5.79555386e+00,  -1.03103162e+02, 
              7.82527959e+01,   1.24867640e+02,   1.13798568e+02,  -6.52412368e+01,   5.98681754e-01, 
              1.09644010e+01,   2.19229992e+01,   1.57187186e+00,   9.76696207e+00,   1.96860809e+01, 
             -2.08759992e+00,   7.58680301e+00,   3.46148420e+01,  -9.36698909e+00,   3.52075579e+00, 
              1.44383902e+01,  -1.02853294e+01,   4.31532856e+00,   1.65763271e+01,  -1.89412671e+01, 
              1.55866023e+01,   2.58133838e+01,  -1.06355501e+03,   6.47339305e+02,   1.83028966e+03, 
              1.41456102e+01,   5.08894326e+01,  -2.45873482e+01,  -1.02364229e+01,  -4.85917670e-01, 
              3.82672630e+01,   1.15802154e+03,  -5.26495126e+02,  -1.85234709e+03,  -2.11047324e+01, 
              1.28262634e+01,   2.25916507e+01,  -8.42330876e+00,  -2.83849940e+01,   2.77718011e+01, 
             -1.16748591e+02,  -7.15734947e+01,  -1.25361831e+02,   7.16286774e+01,  -4.27986218e+01, 
             -1.33288153e+01,  -9.94100144e+00,  -2.98266924e+01,  -4.67404368e+00,   2.09449667e+01, 
             -6.78243769e-01,   4.03303253e+01,   2.32278960e+01,  -1.40400247e+00,   3.94838527e+01, 
              9.30778211e+00,  -1.35312347e+01,   1.34164729e+01,   1.88143319e+01,   5.30672333e-01, 
              4.08403318e+01,   1.06081507e+01,  -9.61231493e+00,   4.55345084e+01,  -4.41393676e+02, 
             -2.32000472e+01,  -5.13386093e+01,   5.07796665e+02,  -2.34414279e+02,   1.00731168e+03, 
              1.06368553e+04,   7.24567114e+03,   1.43370019e+04,  -2.95867471e+00,   5.58626549e+00, 
              3.56428488e+01,   5.79041936e-01,   1.39914790e+01,   3.24529125e+01,   1.63581323e+00, 
              8.80112753e+00,   2.25824983e+01,   1.53633318e+03,   2.15387214e+03,  -1.02564213e+02, 
             -2.44690498e+01,   1.01977341e+01,   2.02560498e+01,  -2.42730223e-01,   1.17791280e+01, 
              3.31094293e+01,  -1.54222120e+03,  -2.18531852e+03,   1.82576044e+02,  -1.01539952e+01, 
              5.28047950e+00,  -1.08973799e+00,   1.13995239e+01,   1.45894772e+01,   5.73809483e+01, 
              2.58549199e+01,  -5.90007149e+01,   8.29481275e+01,  -4.60765659e+01,   4.35770155e+01, 
              1.91209326e+01,  -1.13995391e+01,  -8.84870659e-01,   4.03714475e+01,  -1.79168499e+02, 
              4.54918295e+02,   3.59730685e+01,   1.19225952e+01,  -7.42304099e+00,   4.49144898e+01, 
              2.35562122e+02,  -4.80480790e+02,   3.08083054e+02,  -1.59349148e+01,   5.14882184e+00, 
              9.50264431e+01,  -3.93842326e+01,  -5.65874569e+01,  -2.88901429e+01,   1.20823802e+01, 
             -7.26153196e+00,   4.73753301e+01,   1.15978308e+01,  -1.00359091e+01,   4.33370398e+01, 
             -4.12776821e+01,   1.43853859e+02,   9.35176266e+01 ]
         </q>
         <p shape='(1, 288)'>
          [  -1.50359092e+01,  -4.13301479e+00,  -1.47719202e+01,  -1.84326190e+00,  -6.44100810e-01, 
             -2.66684418e+00,   1.61364762e+01,   5.69202456e+00,   1.44882157e+01,   3.83301371e+00, 
             -1.35267623e+00,   6.63691655e+00,  -5.35788935e+00,   3.40141176e+00,  -4.96279241e+00, 
              2.16458565e+00,  -1.54994716e+00,   3.47217262e+00,  -3.54601746e+00,  -1.25427367e+01, 
             -1.69003112e+00,  -1.25586589e+00,   5.82956475e-01,  -9.09891885e-02,   5.09819452e+00, 
             -2.73103067e-01,   2.15789254e+00,   2.31396879e+00,  -8.29624311e+00,   3.65965993e+00, 
             -3.30165068e+00,  -2.72283731e+00,  -7.30097117e+00,  -3.29359746e+00,  -1.77279392e+00, 
              1.07043129e+00,  -2.65677307e+00,  -1.79188816e+00,  -4.84053532e+00,   2.13148297e+00, 
              4.64962513e+00,  -3.55194924e-01,   3.73026286e+00,   2.30077256e-01,  -5.54421391e+00, 
              9.89180629e+00,  -4.68274078e+00,   2.31871477e+00,  -6.73922629e+00,  -1.17485464e+00, 
              3.12897854e+00,   8.48367589e-01,  -1.60327384e+00,   4.88871837e+00,  -1.79788420e+00, 
             -1.41227758e+00,  -1.95101928e+00,   6.08227726e+00,   5.17333431e+00,   3.12798249e+00, 
              3.22125464e+00,  -3.77317894e+00,  -4.85270596e+00,   2.83974206e+00,   6.28690188e+00, 
             -7.48417368e+00,   6.46797603e+00,   5.08629753e+00,   8.81001697e+00,  -5.40639454e+00, 
             -6.47166384e-01,  -8.57502865e+00,   2.82667590e+00,  -7.79501016e-03,   3.78212224e+00, 
              2.28754032e+00,   2.15120795e+01,  -4.96190410e+01,  -5.35811790e+02,  -3.70225520e+02, 
             -7.12696722e+02,   3.01597553e+00,  -3.53405609e+00,  -5.30701610e+00,   1.84893583e+00, 
              1.86407635e+00,  -3.51951741e+00,  -1.70949622e+00,   1.64931592e+00,  -6.76368089e-01, 
             -7.48516367e-01,  -3.40358172e+00,  -7.64510067e-01,  -7.01696927e-01,   1.24988034e+00, 
              1.72190416e+00,  -3.43193375e+00,  -2.86359668e+00,  -7.56800067e+00,  -8.20091235e+00, 
              5.49299421e+00,  -1.33043502e+00,  -9.72003888e-01,  -3.92565848e+00,   5.23107868e+00, 
              3.78069076e+00,   1.62861139e+00,  -5.40842870e+00,  -2.47804507e+00,   3.88160104e+00, 
             -5.43664680e+00,   7.51428414e-01,  -4.64147150e+00,  -3.32510996e+00,   5.54386604e+00, 
              4.56932702e+00,   5.97503573e+00,  -5.27011037e+00,   9.62395193e+00,  -2.62921686e+00, 
             -3.80577684e+00,   7.90231306e-01,   1.32989648e+00,   1.02871889e+00,  -1.26601449e+00, 
              6.79346252e+00,  -2.06040458e+00,  -3.60186959e+00,  -3.46245642e+00,  -1.06425739e+00, 
             -9.87106355e+00,  -7.06002116e+00,  -5.21487883e+00,  -6.20943145e+00,   3.88396076e+00, 
              5.71472344e-01,  -1.10581604e+00,   1.33973608e+00,  -8.68311341e+00,  -3.34611619e+00, 
             -1.09328238e+00,   5.94278209e+00,   1.10734867e+01,   2.12364089e+00,   4.11631434e+00, 
              5.27021020e+00,  -6.06975143e-02,  -2.83944747e+00,  -4.84115621e+00,   2.16843203e+00, 
             -2.73528455e+00,   2.53350193e+00,  -6.95292433e+00,  -2.67856149e-01,  -5.20369142e+00, 
              3.01258753e+00,   6.14228376e+00,   5.45151091e+00,  -4.12433512e+00,   6.04104731e-01, 
             -1.98263566e+00,  -2.67540195e+00,  -1.22357865e+00,   3.19751445e+00,  -2.71930000e-01, 
             -9.10352274e-01,  -2.08561397e+00,  -1.84229965e+00,   2.54541540e+00,  -3.13340581e+00, 
             -5.78213059e+00,  -3.01087585e+00,   3.21861344e+00,   5.25539571e+00,   3.34781431e-01, 
             -1.91962533e+00,   2.90662027e+00,  -5.23896217e+01,   3.20345240e+01,   8.93892578e+01, 
              8.85840443e-01,   2.61232631e+00,  -2.07763224e+00,  -4.34952145e+00,  -2.00363209e+00, 
              4.43988449e+00,   5.73485049e+01,  -2.59265221e+01,  -9.24851411e+01,  -1.46915816e+00, 
              7.40818034e+00,   6.41715747e+00,  -7.31014135e+00,  -4.10280945e+00,  -1.12045097e+00, 
             -5.74646682e+00,  -3.36827218e+00,  -7.24042261e+00,   3.53485447e+00,  -1.91163119e+00, 
             -1.69028765e+00,  -8.64852339e+00,   1.08073456e+01,   3.26623346e+00,  -2.51012989e+00, 
              2.03472286e+00,   3.79261179e+00,   3.13636498e+00,  -1.93575483e-01,  -3.76461584e-01, 
              9.51188782e-02,  -5.20553599e-01,  -2.80099323e-01,   2.83951629e+00,  -1.82833464e+00, 
              3.55538886e-02,   2.36154588e+00,   8.83616591e-01,  -1.90913565e+00,  -2.21145477e+01, 
             -1.18066746e+00,  -4.13606171e+00,   2.49587996e+01,  -1.16757047e+01,   4.84165443e+01, 
              5.31939405e+02,   3.62256153e+02,   7.16636826e+02,  -8.53439874e-03,  -3.97137994e+00, 
              5.31858898e+00,   1.42387342e+00,   6.51228272e+00,  -1.24834143e+00,  -8.31382856e-02, 
             -8.23523545e-04,   2.81000796e+00,   7.60189764e+01,   1.06217435e+02,  -6.43403502e+00, 
              9.53586546e+00,  -8.97215452e-02,   6.05325000e-01,   4.73690889e+00,   1.44922352e+00, 
              5.50711952e+00,  -7.60300953e+01,  -1.08094391e+02,   7.64947555e+00,  -7.66615619e-01, 
              1.22664013e-01,  -1.24878474e+00,   1.05179357e+00,   7.74693618e-01,   1.44712209e+00, 
              1.70325110e+00,  -4.13832185e+00,  -4.43973177e-01,  -2.11488991e+00,   2.14325860e+00, 
             -3.97675071e-01,   1.08067626e+00,   1.32011474e-01,  -2.06362609e+00,  -8.99231320e+00, 
              2.30209645e+01,   4.80080110e-01,   9.76911337e-01,   9.63475624e-01,  -4.72828831e+00, 
              1.17886568e+01,  -2.38551282e+01,   1.40734576e+01,  -9.14929479e-01,   4.03249995e-01, 
              3.34099150e+00,  -2.48080358e+00,  -3.15125977e+00,  -2.18616785e+00,  -7.78228496e-01, 
             -1.40037649e+00,   8.32431078e+00,  -1.13320690e+00,  -2.00378083e+00,   2.18835452e+00, 
             -2.30159120e+00,   7.07217580e+00,   3.33702047e+00 ]
         </p>
         <m shape='(96)'>
          [   2.18941669e+04,   2.18941669e+04,   2.18941669e+04,   2.18941669e+04,   2.18941669e+04, 
              2.18941669e+04,   2.18941669e+04,   2.18941669e+04,   2.18941669e+04,   2.18941669e+04, 
              2.18941669e+04,   2.18941669e+04,   2.18941669e+04,   2.18941669e+04,   2.18941669e+04, 
              2.18941669e+04,   2.18941669e+04,   2.18941669e+04,   2.18941669e+04,   2.18941669e+04, 
              2.18941669e+04,   2.18941669e+04,   2.18941669e+04,   2.18941669e+04,   2.18941669e+04, 
              2.18941669e+04,   2.18941669e+04,   2.18941669e+04,   2.18941669e+04,   2.18941669e+04, 
              2.18941669e+04,   2.18941669e+04,   2.18941669e+04,   2.18941669e+04,   2.18941669e+04, 
              2.18941669e+04,   2.18941669e+04,   2.18941669e+04,   2.18941669e+04,   2.18941669e+04, 
              2.18941669e+04,   2.18941669e+04,   2.18941669e+04,   2.18941669e+04,   2.18941669e+04, 
              2.18941669e+04,   2.18941669e+04,   2.18941669e+04,   2.18941669e+04,   2.18941669e+04, 
              2.18941669e+04,   2.18941669e+04,   2.18941669e+04,   2.18941669e+04,   2.18941669e+04, 
              2.18941669e+04,   2.18941669e+04,   2.18941669e+04,   2.18941669e+04,   2.18941669e+04, 
              2.18941669e+04,   2.18941669e+04,   2.18941669e+04,   2.18941669e+04,   2.18941669e+04, 
              2.18941669e+04,   2.18941669e+04,   2.18941669e+04,   2.18941669e+04,   2.18941669e+04, 
              2.18941669e+04,   2.18941669e+04,   2.18941669e+04,   2.18941669e+04,   2.18941669e+04, 
              2.18941669e+04,   2.18941669e+04,   2.18941669e+04,   2.18941669e+04,   2.18941669e+04, 
              2.18941669e+04,   2.18941669e+04,   2.18941669e+04,   2.18941669e+04,   2.18941669e+04, 
              2.18941669e+04,   2.18941669e+04,   2.18941669e+04,   2.18941669e+04,   2.18941669e+04, 
              2.18941669e+04,   2.18941669e+04,   2.18941669e+04,   2.18941669e+04,   2.18941669e+04, 
              2.18941669e+04 ]
         </m>
         <names shape='(96)'>
          [ C, C, C, C, C, 
            C, C, C, C, C, 
            C, C, C, C, C, 
            C, C, C, C, C, 
            C, C, C, C, C, 
            C, C, C, C, C, 
            C, C, C, C, C, 
            C, C, C, C, C, 
            C, C, C, C, C, 
            C, C, C, C, C, 
            C, C, C, C, C, 
            C, C, C, C, C, 
            C, C, C, C, C, 
            C, C, C, C, C, 
            C, C, C, C, C, 
            C, C, C, C, C, 
            C, C, C, C, C, 
            C, C, C, C, C, 
            C, C, C, C, C, 
            C ]
         </names>
      </beads>
      <cell shape='(3, 3)'>
       [   2.45664393e+01,   1.50426056e-15,   2.46814445e-15,   0.00000000e+00,   2.45664393e+01, 
           2.46814445e-15,   0.00000000e+00,   0.00000000e+00,   4.03078577e+01 ]
      </cell>
   </system>
</simulation>
