96
Lattice="4.199999942576283 0.0 0.0 3.1840816342493553e-16 5.19999992890397 0.0 1.0531962328670942e-15 1.0531962328670942e-15 17.199999764836207" Properties=species:S:1:pos:R:3 ipi_comment="Step:           0  Bead:       0 positions{ase}  cell{ase}" pbc="T T T"
C        2.34866097       0.00000000       0.00000000
C        2.03399997       1.17433098       3.54999995
C        2.03399997       1.17433098       2.12999997
C        1.17433098       2.03399997       1.41999998
C        1.17433098       2.03399997       0.00000000
C        0.00000000       2.34866097       3.54999995
C        0.00000000       2.34866097       2.12999997
C       -1.17433098       2.03399997       1.41999998
C       -1.17433098       2.03399997       0.00000000
C       -2.03399997       1.17433098       3.54999995
C       -2.03399997       1.17433098       2.12999997
C       -2.34866097       0.00000000       1.41999998
C       -2.34866097       0.00000000       0.00000000
C       -2.03399997      -1.17433098       3.54999995
C       -2.03399997      -1.17433098       2.12999997
C       -1.17433098      -2.03399997       1.41999998
C       -1.17433098      -2.03399997       0.00000000
C        0.00000000      -2.34866097       3.54999995
C        0.00000000      -2.34866097       2.12999997
C        1.17433098      -2.03399997       1.41999998
C        1.17433098      -2.03399997       0.00000000
C        2.03399997      -1.17433098       3.54999995
C        2.03399997      -1.17433098       2.12999997
C        2.34866097       0.00000000       1.41999998
C        2.34866097       0.00000000       4.25999994
C        2.03399997       1.17433098       7.80999989
C        2.03399997       1.17433098       6.38999991
C        1.17433098       2.03399997       5.67999992
C        1.17433098       2.03399997       4.25999994
C        0.00000000       2.34866097       7.80999989
C        0.00000000       2.34866097       6.38999991
C       -1.17433098       2.03399997       5.67999992
C       -1.17433098       2.03399997       4.25999994
C       -2.03399997       1.17433098       7.80999989
C       -2.03399997       1.17433098       6.38999991
C       -2.34866097       0.00000000       5.67999992
C       -2.34866097       0.00000000       4.25999994
C       -2.03399997      -1.17433098       7.80999989
C       -2.03399997      -1.17433098       6.38999991
C       -1.17433098      -2.03399997       5.67999992
C       -1.17433098      -2.03399997       4.25999994
C        0.00000000      -2.34866097       7.80999989
C        0.00000000      -2.34866097       6.38999991
C        1.17433098      -2.03399997       5.67999992
C        1.17433098      -2.03399997       4.25999994
C        2.03399997      -1.17433098       7.80999989
C        2.03399997      -1.17433098       6.38999991
C        2.34866097       0.00000000       5.67999992
C        2.34866097       0.00000000       8.51999988
C        2.03399997       1.17433098      12.06999983
C        2.03399997       1.17433098      10.64999985
C        1.17433098       2.03399997       9.93999986
C        1.17433098       2.03399997       8.51999988
C        0.00000000       2.34866097      12.06999983
C        0.00000000       2.34866097      10.64999985
C       -1.17433098       2.03399997       9.93999986
C       -1.17433098       2.03399997       8.51999988
C       -2.03399997       1.17433098      12.06999983
C       -2.03399997       1.17433098      10.64999985
C       -2.34866097       0.00000000       9.93999986
C       -2.34866097       0.00000000       8.51999988
C       -2.03399997      -1.17433098      12.06999983
C       -2.03399997      -1.17433098      10.64999985
C       -1.17433098      -2.03399997       9.93999986
C       -1.17433098      -2.03399997       8.51999988
C        0.00000000      -2.34866097      12.06999983
C        0.00000000      -2.34866097      10.64999985
C        1.17433098      -2.03399997       9.93999986
C        1.17433098      -2.03399997       8.51999988
C        2.03399997      -1.17433098      12.06999983
C        2.03399997      -1.17433098      10.64999985
C        2.34866097       0.00000000       9.93999986
C        2.34866097       0.00000000      12.77999983
C        2.03399997       1.17433098      16.32999978
C        2.03399997       1.17433098      14.90999980
C        1.17433098       2.03399997      14.19999981
C        1.17433098       2.03399997      12.77999983
C        0.00000000       2.34866097      16.32999978
C        0.00000000       2.34866097      14.90999980
C       -1.17433098       2.03399997      14.19999981
C       -1.17433098       2.03399997      12.77999983
C       -2.03399997       1.17433098      16.32999978
C       -2.03399997       1.17433098      14.90999980
C       -2.34866097       0.00000000      14.19999981
C       -2.34866097       0.00000000      12.77999983
C       -2.03399997      -1.17433098      16.32999978
C       -2.03399997      -1.17433098      14.90999980
C       -1.17433098      -2.03399997      14.19999981
C       -1.17433098      -2.03399997      12.77999983
C        0.00000000      -2.34866097      16.32999978
C        0.00000000      -2.34866097      14.90999980
C        1.17433098      -2.03399997      14.19999981
C        1.17433098      -2.03399997      12.77999983
C        2.03399997      -1.17433098      16.32999978
C        2.03399997      -1.17433098      14.90999980
C        2.34866097       0.00000000      14.19999981
96
Lattice="4.199999942576283 0.0 0.0 3.1840816342493553e-16 5.19999992890397 0.0 1.0531962328670942e-15 1.0531962328670942e-15 17.199999764836207" Properties=species:S:1:pos:R:3 ipi_comment="Step:           4  Bead:       0 positions{ase}  cell{ase}" pbc="T T T"
C        2.34910591       0.02018168       0.00813288
C        2.02967203       1.17335712       3.53333687
C        2.04790350       1.17863723       2.15400476
C        1.16254694       2.02489303       1.42560904
C        1.17839991       2.02930774      -0.00040645
C       -0.00328085       2.35492643       3.55013631
C       -0.00108816       2.34085536       2.13730715
C       -1.17376136       2.04247096       1.40660954
C       -1.18899434       2.03666785      -0.01321471
C       -2.03142223       1.17805701       3.54229382
C       -2.03516093       1.17299090       2.12564161
C       -2.35715704      -0.00301625       1.42179994
C       -2.34257289       0.01162866       0.01167085
C       -2.02852260      -1.18114112       3.54903389
C       -2.03133541      -1.17018897       2.13477670
C       -1.16679387      -2.02325708       1.40958609
C       -1.18022964      -2.01651402      -0.00283848
C       -0.00016507      -2.35544091       3.55630649
C        0.00390552      -2.34713733       2.13474682
C        1.15766963      -2.05118238       1.41132318
C        1.16642032      -2.03055133       0.00369171
C        2.04500109      -1.17346644       3.56646960
C        2.03947362      -1.17324972       2.13224183
C        2.35213240       0.00609759       1.43138418
C        2.36350111      -0.00259682       4.25192158
C        2.04051470       1.17447465       7.80133259
C        2.02439556       1.16611471       6.38149794
C        1.17592915       2.02830345       5.66302451
C        1.16456128       2.03210183       4.25845643
C       -0.00853119       2.34690317       7.79571808
C       -0.00399014       2.35481851       6.38581519
C       -1.17137930       2.03881321       5.68900805
C       -1.17830815       2.03525003       4.26217668
C       -2.03237599       1.17374955       7.81607023
C       -2.03451997       1.15482342       6.38927483
C       -2.35909574       0.00436437       5.67309942
C       -2.34813597       0.00229814       4.27055069
C       -2.01549330      -1.17560079       7.80984186
C       -2.02749676      -1.15795171       6.38787376
C       -1.18692408      -2.03493081       5.67795502
C       -1.18543855      -2.04441312       4.26281498
C       -0.00051553      -2.35153211       7.81070193
C       -0.01522033      -2.35237065       6.39286410
C        1.18560199      -2.04161607       5.67946843
C        1.18309595      -2.03593893       4.27082480
C        2.05011074      -1.17056496       7.81560260
C        2.02518681      -1.16383911       6.39792926
C        2.35384239       0.01032256       5.69122478
C        2.34352774       0.01041890       8.48995047
C        2.03152404       1.16634398      12.06529746
C        2.03951142       1.16297083      10.64749447
C        1.16550951       2.04692898       9.93530062
C        1.15743699       2.02152875       8.52087227
C       -0.00242516       2.35153120      12.07640542
C       -0.00126422       2.34852938      10.64664028
C       -1.17256316       2.03068801       9.94079372
C       -1.17551440       2.05693032       8.51968682
C       -2.02582671       1.16025360      12.07568824
C       -2.03924889       1.17535346      10.63984014
C       -2.36913893      -0.00188293       9.94171110
C       -2.35039568      -0.00684317       8.52981465
C       -2.04378267      -1.17421206      12.06751874
C       -2.02988815      -1.18361642      10.65303455
C       -1.17350796      -2.03997824       9.94794277
C       -1.16148818      -2.03111526       8.51063650
C        0.00652563      -2.34201778      12.07332559
C        0.01033742      -2.36318522      10.65533884
C        1.17655433      -2.02324949       9.94233139
C        1.17834731      -2.04793336       8.53350575
C        2.04291401      -1.18532033      12.07040446
C        2.04368052      -1.18639990      10.66016536
C        2.34066714       0.00397497       9.93128063
C        2.35296425       0.00456248      12.77302526
C        2.02878936       1.16761807      16.32821338
C        2.02205026       1.20079075      14.91086029
C        1.18478993       2.05498096      14.19241285
C        1.18490714       2.03461750      12.77645254
C        0.00253194       2.34842581      16.33955384
C        0.01492293       2.35294601      14.90690210
C       -1.18032296       2.03740268      14.19822982
C       -1.15678930       2.03874846      12.76964132
C       -2.03179799       1.17793402      16.30681903
C       -2.04036857       1.15820527      14.91605758
C       -2.35996272      -0.00133439      14.20984481
C       -2.35920198      -0.00243814      12.78892485
C       -2.02624789      -1.17869487      16.32231989
C       -2.02695432      -1.17814560      14.91216896
C       -1.17554155      -2.03493699      14.21839569
C       -1.17385913      -2.01576231      12.78483360
C       -0.01684179      -2.34977885      16.32603433
C       -0.00102794      -2.35897024      14.90877659
C        1.18602570      -2.02669636      14.20348477
C        1.17300484      -2.04536070      12.79286685
C        2.04180212      -1.18844454      16.32311615
C        2.03102810      -1.18204924      14.90407354
C        2.34354645       0.00077349      14.18730966
96
Lattice="4.199999942576283 0.0 0.0 3.1840816342493553e-16 5.19999992890397 0.0 1.0531962328670942e-15 1.0531962328670942e-15 17.199999764836207" Properties=species:S:1:pos:R:3 ipi_comment="Step:           8  Bead:       0 positions{ase}  cell{ase}" pbc="T T T"
C        2.34187052       0.04120998       0.01465796
C        2.02721967       1.17298179       3.52026911
C        2.06402955       1.18544111       2.17390365
C        1.15416382       2.01914422       1.43217498
C        1.17949385       2.01755857      -0.00177306
C       -0.00701926       2.36284208       3.55050490
C       -0.00265352       2.33693126       2.14328650
C       -1.17614219       2.05432247       1.39486824
C       -1.20050635       2.03243789      -0.02775539
C       -2.03053725       1.18209665       3.53546090
C       -2.03893188       1.17423825       2.12079331
C       -2.37040231      -0.00558894       1.42565210
C       -2.32871145       0.02346318       0.02017318
C       -2.02524046      -1.18761813       3.54855123
C       -2.03147207      -1.16860337       2.13898039
C       -1.16193638      -2.01634358       1.40151781
C       -1.18234947      -1.99220196      -0.00795404
C        0.00006280      -2.36368599       3.56249239
C        0.00629878      -2.34960989       2.13988669
C        1.14624914      -2.07069843       1.40541179
C        1.15450261      -2.02069873       0.00454270
C        2.05758115      -1.17390493       3.58080749
C        2.04719152      -1.17457065       2.13383263
C        2.36001603       0.01125859       1.44413897
C        2.37989174      -0.00430257       4.24517944
C        2.04749699       1.17727256       7.79302305
C        2.01663289       1.16040046       6.37286412
C        1.17767162       2.02492045       5.64783243
C        1.15635091       2.03147675       4.25594870
C       -0.01622046       2.34734366       7.78343124
C       -0.00732455       2.36279624       6.38032871
C       -1.17066946       2.04446602       5.69752937
C       -1.18312977       2.03828964       4.26419596
C       -2.03249083       1.17390724       7.82264836
C       -2.03594283       1.13908314       6.38910992
C       -2.37163107       0.00819634       5.66754057
C       -2.34915628       0.00425365       4.27831595
C       -1.99963637      -1.17693713       7.80993223
C       -2.02280850      -1.14408891       6.38559796
C       -1.19994607      -2.03759460       5.67732370
C       -1.19651901      -2.05658852       4.26487906
C        0.00039229      -2.35664139       7.81186384
C       -0.02879594      -2.35790891       6.39428330
C        1.19641855      -2.05086585       5.68105336
C        1.19193124      -2.03985074       4.28091189
C        2.06651195      -1.16943865       7.82119865
C        2.01837967      -1.15505102       6.40480925
C        2.36120987       0.01899732       5.70093841
C        2.34103759       0.01981648       8.46279514
C        2.03069181       1.15994378      12.06044368
C        2.04568495       1.15369271      10.64336873
C        1.15878079       2.06052418       9.93145627
C        1.14212412       2.01099217       8.52027715
C       -0.00283026       2.35639662      12.08147174
C       -0.00240534       2.35045951      10.64334971
C       -1.17223626       2.02951712       9.94180613
C       -1.17917404       2.08028370       8.51818504
C       -2.01906170       1.14788950      12.08034570
C       -2.04640685       1.17669335      10.63075054
C       -2.39108102      -0.00421006       9.94430088
C       -2.35373945      -0.01291576       8.53812873
C       -2.05467597      -1.17562321      12.06629401
C       -2.02797440      -1.19323756      10.65502021
C       -1.17295056      -2.04786062       9.95584195
C       -1.15045871      -2.03019723       8.50275075
C        0.01206615      -2.33731745      12.07746471
C        0.01962333      -2.37921924      10.65995243
C        1.17947646      -2.01539919       9.94564646
C        1.18421764      -2.06244519       8.54481655
C        2.05326934      -1.19711172      12.07161057
C        2.05556856      -1.19815777      10.66847472
C        2.33485507       0.00734066       9.92335817
C        2.35905684       0.00752018      12.76683979
C        2.01703238       1.15709246      16.32813660
C        2.01576721       1.22649227      14.90998497
C        1.19663333       2.07962466      14.18487363
C        1.19579410       2.03729124      12.77276148
C        0.00498189       2.34055376      16.34924232
C        0.02717134       2.36162515      14.90309507
C       -1.18614561       2.04406807      14.19739959
C       -1.14254395       2.04386142      12.76144003
C       -2.02278382       1.17812226      16.28896831
C       -2.04978766       1.14648919      14.91803900
C       -2.37532070      -0.00417202      14.21870180
C       -2.37140646      -0.00435939      12.79757117
C       -2.01162735      -1.17966668      16.31805237
C       -2.02480580      -1.18359863      14.91283784
C       -1.17812017      -2.03955347      14.23440965
C       -1.17379091      -1.99954832      12.78996929
C       -0.03430454      -2.34337807      16.32415570
C       -0.00096878      -2.37389198      14.90670040
C        1.19710332      -2.02460045      14.20701772
C        1.17392789      -2.05722918      12.80461620
C        2.04340583      -1.19855866      16.31867927
C        2.03345239      -1.18966390      14.89683087
C        2.34148454       0.00308866      14.17659233
96
Lattice="4.199999942576283 0.0 0.0 3.1840816342493553e-16 5.19999992890397 0.0 1.0531962328670942e-15 1.0531962328670942e-15 17.199999764836207" Properties=species:S:1:pos:R:3 ipi_comment="Step:          12  Bead:       0 positions{ase}  cell{ase}" pbc="T T T"
C        2.32687223       0.06343484       0.02017136
C        2.02689470       1.17301850       3.51496551
C        2.08123459       1.19490415       2.18531281
C        1.15015877       2.01638819       1.43885094
C        1.17831840       1.99839662      -0.00288972
C       -0.01151507       2.37205878       3.55140569
C       -0.00507715       2.33704052       2.14677308
C       -1.18182615       2.06868748       1.38493068
C       -1.20914153       2.02094309      -0.04227542
C       -2.03143807       1.18595084       3.53051908
C       -2.04473958       1.17845053       2.11539860
C       -2.38804133      -0.00728559       1.43154337
C       -2.30704792       0.03541764       0.02487137
C       -2.02468047      -1.19272835       3.54909577
C       -2.03405073      -1.16998018       2.14213209
C       -1.16010072      -2.01321251       1.39645304
C       -1.18054527      -1.96124148      -0.01500158
C        0.00093323      -2.37292605       3.56846037
C        0.00604794      -2.35608021       2.14563703
C        1.14241380      -2.09088107       1.40292710
C        1.13850567      -2.00472160       0.00243620
C        2.07132511      -1.17604390       3.59121221
C        2.05630533      -1.17843905       2.13451683
C        2.37184892       0.01463234       1.45746399
C        2.39713209      -0.00447573       4.24119672
C        2.05368842       1.18393190       7.78493028
C        2.01088950       1.15862663       6.36486918
C        1.17880814       2.02437820       5.63573622
C        1.15039637       2.03185366       4.25189254
C       -0.02226169       2.35008899       7.77446907
C       -0.00943363       2.37216178       6.37335514
C       -1.17319915       2.05006003       5.70428889
C       -1.18864487       2.04315595       4.26599297
C       -2.03433677       1.17460175       7.82931475
C       -2.03752138       1.12973592       6.39060412
C       -2.38597842       0.01097144       5.66404932
C       -2.35144196       0.00556667       4.28102088
C       -1.98756695      -1.17748580       7.80992929
C       -2.02004212      -1.13430617       6.38374687
C       -1.21252758      -2.04192249       5.67860455
C       -1.20655025      -2.07026204       4.26577968
C        0.00384068      -2.36403189       7.81318464
C       -0.03912105      -2.36495099       6.39386680
C        1.20541369      -2.06133219       5.68573190
C        1.20003195      -2.04582958       4.28950994
C        2.08170982      -1.17215473       7.82588069
C        2.01391197      -1.14879037       6.41021623
C        2.37072286       0.02433521       5.70711666
C        2.34172363       0.02706327       8.44232985
C        2.03156323       1.15576273      12.05528718
C        2.05144671       1.14766641      10.63715433
C        1.15511165       2.07350332       9.92847167
C        1.12921471       2.00285311       8.51769712
C        0.00040890       2.36324712      12.08378961
C       -0.00331857       2.35440202      10.64080415
C       -1.17373187       2.03073371       9.94252702
C       -1.18631737       2.10236024       8.51528607
C       -2.01371025       1.13820748      12.08299129
C       -2.05533706       1.17773720      10.62436308
C       -2.41334995      -0.00725736       9.94775602
C       -2.35824058      -0.01748378       8.54412193
C       -2.06598984      -1.17893406      12.06719117
C       -2.02866697      -1.20242039      10.65574782
C       -1.17208191      -2.05745848       9.96279055
C       -1.14213210      -2.03143732       8.49834559
C        0.01578256      -2.33471320      12.08273618
C        0.02683426      -2.39586734      10.66383350
C        1.18274579      -2.01152466       9.95005424
C        1.19236512      -2.07628221       8.55252539
C        2.06473790      -1.20922714      12.07399356
C        2.06959971      -1.20838520      10.67385025
C        2.33153309       0.00954053       9.91630297
C        2.36674722       0.00761767      12.76205644
C        1.99886845       1.14300595      16.32900897
C        2.01642638       1.24859149      14.90765679
C        1.20914018       2.10750475      14.17764999
C        1.20627245       2.04234775      12.76869027
C        0.00728672       2.32504106      16.35693769
C        0.03449821       2.37423830      14.89957374
C       -1.19014605       2.05372020      14.19796409
C       -1.13390557       2.04821279      12.75713564
C       -2.00672846       1.17521189      16.27904733
C       -2.06128348       1.14097397      14.91424211
C       -2.39451759      -0.00951817      14.22545048
C       -2.38484156      -0.00540490      12.80517446
C       -1.98999880      -1.17756668      16.31805751
C       -2.02824930      -1.18999695      14.91231100
C       -1.18151209      -2.04798047      14.24556147
C       -1.17371415      -1.98621198      12.79529907
C       -0.05260135      -2.32951851      16.32408221
C        0.00090024      -2.39290399      14.90467414
C        1.20537185      -2.02924457      14.21046126
C        1.17803203      -2.06854838      12.81377664
C        2.03898883      -1.20416243      16.31669947
C        2.04220634      -1.19508560      14.88898516
C        2.34199439       0.00788112      14.16934510
96
Lattice="4.199999942576283 0.0 0.0 3.1840816342493553e-16 5.19999992890397 0.0 1.0531962328670942e-15 1.0531962328670942e-15 17.199999764836207" Properties=species:S:1:pos:R:3 ipi_comment="Step:          16  Bead:       0 positions{ase}  cell{ase}" pbc="T T T"
C        2.30374796       0.08768682       0.02565813
C        2.02878016       1.17341101       3.51983366
C        2.09898317       1.20694440       2.18578752
C        1.15088196       2.01630129       1.44494197
C        1.17555316       1.97105769      -0.00270284
C       -0.01701299       2.38239544       3.55284986
C       -0.00861247       2.34113626       2.14695947
C       -1.19095673       2.08502172       1.37644141
C       -1.21536085       2.00158585      -0.05559345
C       -2.03414600       1.18946257       3.52792970
C       -2.05229978       1.18559332       2.10948303
C       -2.40972546      -0.00778620       1.43882920
C       -2.27713671       0.04762314       0.02620944
C       -2.02702417      -1.19609792       3.55094502
C       -2.03886187      -1.17421910       2.14385265
C       -1.16132522      -2.01364280       1.39436973
C       -1.17457552      -1.92313322      -0.02322926
C        0.00250980      -2.38297425       3.57424006
C        0.00282349      -2.36634392       2.15180995
C        1.14713941      -2.11087300       1.40368711
C        1.11790783      -1.98261654      -0.00187206
C        2.08596877      -1.18023919       3.59681984
C        2.06638277      -1.18477137       2.13431169
C        2.38726587       0.01578897       1.47040934
C        2.41486934      -0.00298491       4.24076211
C        2.05836791       1.19490189       7.77692088
C        2.00722597       1.16159023       6.35790154
C        1.17881184       2.02697908       5.62739198
C        1.14700100       2.03303078       4.24595205
C       -0.02640114       2.35521667       7.76932704
C       -0.01009809       2.38270143       6.36499917
C       -1.17948674       2.05511399       5.70844534
C       -1.19488075       2.04984304       4.26746745
C       -2.03791461       1.17578073       7.83572491
C       -2.03892587       1.12810987       6.39437970
C       -2.40195333       0.01250635       5.66297721
C       -2.35481793       0.00608972       4.27758775
C       -1.97976257      -1.17673413       7.80972922
C       -2.01927162      -1.12937745       6.38271024
C       -1.22411158      -2.04797884       5.68182701
C       -1.21505541      -2.08523963       4.26543776
C        0.01039144      -2.37373839       7.81444775
C       -0.04527129      -2.37336834       6.39172806
C        1.21181548      -2.07277787       5.69382782
C        1.20714289      -2.05380358       4.29618277
C        2.09502407      -1.17916321       7.82904188
C        2.01196632      -1.14559033       6.41398263
C        2.38236161       0.02541772       5.70866705
C        2.34579009       0.03154872       8.43075658
C        2.03423083       1.15392329      12.04971542
C        2.05604754       1.14570582      10.62876540
C        1.15501910       2.08507393       9.92608299
C        1.11905769       1.99739366       8.51295711
C        0.00789273       2.37200585      12.08270712
C       -0.00396145       2.36029288      10.63934357
C       -1.17739906       2.03440028       9.94256376
C       -1.19749761       2.12227879       8.51109722
C       -2.00968969       1.13171429      12.08330775
C       -2.06588054       1.17812892      10.62161782
C       -2.43534277      -0.01124093       9.95195292
C       -2.36362343      -0.02018300       8.54749131
C       -2.07739681      -1.18423460      12.07066332
C       -2.03219532      -1.21080292      10.65537285
C       -1.17063555      -2.06862252       9.96815025
C       -1.13679312      -2.03493580       8.49858723
C        0.01737825      -2.33419852      12.08928677
C        0.03150767      -2.41261772      10.66726479
C        1.18625802      -2.01223828       9.95556044
C        1.20303040      -2.08884229       8.55600174
C        2.07731685      -1.22137352      12.07768260
C        2.08566881      -1.21657343      10.67578998
C        2.33093016       0.01020000       9.90984165
C        2.37590727       0.00438211      12.75891759
C        1.97400661       1.12544663      16.32972172
C        2.02437566       1.26583381      14.90440959
C        1.22194341       2.13829263      14.17127683
C        1.21606163       2.05005008      12.76398822
C        0.00948594       2.30158073      16.36099929
C        0.03603730       2.39044494      14.89715935
C       -1.19160583       2.06595913      14.20001219
C       -1.13182289       2.05121440      12.75746787
C       -1.98304044       1.16936729      16.27754759
C       -2.07429753       1.14245925      14.90441579
C       -2.41738013      -0.01766041      14.22967145
C       -2.39935745      -0.00557567      12.81108866
C       -1.96067414      -1.17271989      16.32225221
C       -2.03747119      -1.19710264      14.91132814
C       -1.18532112      -2.06007740      14.25058165
C       -1.17333649      -1.97625444      12.80076679
C       -0.07235439      -2.30797448      16.32514830
C        0.00472741      -2.41559181      14.90368947
C        1.20992041      -2.04118728      14.21402620
C        1.18570559      -2.07890875      12.81944896
C        2.02860631      -1.20490032      16.31652910
C        2.05753549      -1.19729236      14.88133061
C        2.34470224       0.01557577      14.16626065
96
Lattice="4.199999942576283 0.0 0.0 3.1840816342493553e-16 5.19999992890397 0.0 1.0531962328670942e-15 1.0531962328670942e-15 17.199999764836207" Properties=species:S:1:pos:R:3 ipi_comment="Step:          20  Bead:       0 positions{ase}  cell{ase}" pbc="T T T"
C        2.27233893       0.11447032       0.03214187
C        2.03296643       1.17426409       3.53382949
C        2.11674142       1.22092362       2.17633736
C        1.15615256       2.01872248       1.44986803
C        1.17181812       1.93498348      -0.00046036
C       -0.02352834       2.39357262       3.55443610
C       -0.01325247       2.34904573       2.14338057
C       -1.20334470       2.10267798       1.36902287
C       -1.21953021       1.97381459      -0.06644106
C       -2.03863069       1.19269920       3.52766306
C       -2.06150859       1.19513636       2.10337206
C       -2.43448387      -0.00678829       1.44610404
C       -2.23878249       0.06000944       0.02544186
C       -2.03213858      -1.19788745       3.55402157
C       -2.04584601      -1.18071344       2.14381885
C       -1.16541472      -2.01735065       1.39482251
C       -1.16410244      -1.87758067      -0.03135608
C        0.00464849      -2.39366623       3.57979878
C       -0.00283458      -2.37988578       2.15759806
C        1.16014213      -2.12984001       1.40698195
C        1.09221074      -1.95456347      -0.00682228
C        2.10104780      -1.18669937       3.59739358
C        2.07710067      -1.19329129       2.13343052
C        2.40563804       0.01465595       1.48159080
C        2.43260463      -0.00023144       4.24400259
C        2.06127148       1.20942732       7.76930823
C        2.00588190       1.16922978       6.35205122
C        1.17735635       2.03283896       5.62313623
C        1.14623128       2.03492639       4.23826901
C       -0.02881189       2.36273879       7.76786836
C       -0.00945684       2.39415076       6.35583309
C       -1.18939977       2.05948944       5.70953843
C       -1.20188367       2.05818063       4.26843144
C       -2.04319305       1.17756623       7.84148674
C       -2.04030401       1.13431875       6.40033482
C       -2.41898077       0.01292776       5.66437513
C       -2.35919851       0.00579421       4.26829831
C       -1.97633903      -1.17461661       7.80957465
C       -2.02069286      -1.12947981       6.38264596
C       -1.23406881      -2.05587862       5.68653413
C       -1.22181505      -2.10100419       4.26409060
C        0.01983510      -2.38553925       7.81562296
C       -0.04670805      -2.38302974       6.38845009
C        1.21518451      -2.08486918       5.70480486
C        1.21328787      -2.06341105       4.30059856
C        2.10614993      -1.18998405       7.83042813