<simulation>
   <prng>
      <seed>32415</seed>
      <state>[{"bit_generator": "MT19937", "state": {"key": [1373509414, 2303643773, 3329550911, 2826922349, 2375003907, 2138182176, 324223052, 578567864, 2453453551, 1358969020, 1774242027, 2344259474, 1629286855, 3163239338, 2841036551, 506338982, 2431130614, 2395052626, 1449316743, 2717086958, 2738424387, 3142148942, 3449622173, 3133372752, 3679614473, 3746579431, 2928330626, 1959740928, 402969066, 703784110, 3771270017, 2227666292, 2425268781, 889133383, 3244655073, 2070392537, 4150610536, 3728243640, 915686891, 699636834, 2410978049, 224042492, 2907121168, 1098368345, 4255656278, 2024859915, 3323916972, 3668916789, 4279661319, 99943575, 2967030751, 3244422197, 1485636857, 2150272568, 2394707121, 352970034, 3645298637, 3842668832, 1591127520, 3885142069, 1990683028, 1799685208, 3180178979, 2055952970, 2778115811, 3722954972, 3582545407, 2365153794, 1350758404, 2806116533, 3775970573, 3686439599, 2887949018, 2000392602, 285591208, 2555482574, 2680926317, 2204935755, 217792784, 1631795188, 2548713406, 2721784843, 3650547613, 204664634, 3283330374, 2995075562, 3865995046, 487663390, 292449693, 2224903631, 2082583949, 1653466474, 2857592410, 2016030181, 1917495488, 1659389373, 615121330, 1254872362, 499995606, 2857646810, 1907943195, 908534371, 2745965287, 3227206201, 864911817, 459621236, 1244270925, 3171004605, 2233666546, 3710578486, 2458274330, 245173429, 3498755371, 2846823138, 3510793930, 83002565, 1931964040, 740062691, 1258398119, 58273040, 3756875603, 1173285908, 2086822487, 3777287113, 2092549532, 1089872903, 1433289136, 208306844, 1977115139, 2489697112, 2504042091, 3284261988, 288261359, 652784291, 3045281346, 612168094, 3320241660, 1745563574, 1154087384, 1677866675, 4095057960, 2903207187, 1105467022, 2507475637, 1724823807, 3526298986, 691739747, 4037287474, 1909196207, 2652983931, 1957319917, 1465152904, 2814969974, 3841960427, 4187547243, 4149475528, 4146164015, 3510421247, 3977511076, 3144120559, 86611635, 2845079468, 4107559688, 1314816347, 1199746431, 2789155292, 4260566758, 524175816, 394237505, 4108766461, 110659519, 237476748, 1496697207, 3058821841, 4214488193, 1714255894, 619119530, 1099030853, 945974506, 1041082734, 2420996101, 1735664507, 2332104417, 2117231230, 2680971561, 1300068753, 2142202516, 1732489339, 2103414444, 2704653695, 3647835011, 3824513000, 3873007832, 3829942855, 330962679, 3160607277, 1737382082, 2808140936, 3318132352, 3505691908, 3029481651, 271397804, 2030033523, 1489515276, 2305959564, 782262235, 2442927445, 1837883043, 3448577991, 268645994, 1560454664, 873788527, 2642948770, 3074035406, 2446007117, 859806220, 3719756102, 1740491233, 1403180815, 557262874, 1878485821, 3343694742, 1485789324, 1366494374, 3684264341, 722480840, 61413469, 500625523, 2638084871, 3262521304, 492235835, 3194952368, 1186124181, 1901852504, 874404611, 726890469, 1825143982, 2957963157, 1174260025, 2421880986, 3897109755, 662624703, 29482546, 3684296819, 337740950, 2129429851, 2080264575, 3472735806, 308633474, 522184933, 1130554100, 2677723439, 1401583177, 3022782377, 3338138063, 812674360, 2029668370, 3521835867, 1491959187, 2424666783, 3743159825, 1921852606, 609004470, 3595671077, 1146881801, 2572538753, 4042885823, 598973373, 3975033416, 332581144, 2945716874, 1526589448, 1246156210, 3996674572, 4247143492, 1683183048, 3696582640, 3730663199, 1166886035, 1225471045, 2990223383, 3540065690, 2263092978, 1740096059, 1600321241, 1306379901, 2345344022, 4078508441, 1879712214, 2421171160, 3097118851, 1038382455, 960605201, 475204984, 3810709693, 2294339116, 447603888, 1195055363, 3062498795, 3757654700, 812744095, 52969243, 2987290201, 1923147447, 223656095, 2494780056, 4128812079, 1680839306, 3009160221, 3526197561, 869140526, 3811439253, 3133860021, 2043805482, 2691214104, 3750040610, 52828337, 5349017, 3272973525, 35697223, 492788259, 580058592, 1771273001, 1024457906, 2668557066, 3965681446, 622240115, 1885268836, 1408899474, 1558642217, 1857747314, 3085697397, 943009446, 726485322, 541732148, 1425294435, 112980260, 1161735239, 2123245180, 3803209802, 847819638, 1312629051, 1001707146, 491293208, 1505494410, 2541304399, 637330498, 3367804903, 37534719, 395365336, 1767813787, 3617149011, 104785075, 3306915160, 4287145709, 3334048675, 2974455181, 1490943748, 1694314180, 4021084498, 3476160887, 2366556445, 2189047362, 3446565869, 2854988943, 98607898, 1231849512, 4199400835, 1430729369, 3135620720, 125814907, 2329308091, 4015992764, 1118807013, 3924237532, 2118549073, 168894978, 695300940, 2662743095, 1928963787, 2461058512, 2931923083, 4247045964, 2539502243, 278209496, 2715569328, 3159875139, 3261437329, 2024573355, 987937574, 2367811431, 4018105952, 1795427542, 2424230655, 3792481235, 3254545468, 4198426080, 2305694692, 691856885, 3488305219, 3986422696, 2007869314, 3601755380, 187901912, 2551117209, 3863906818, 1302715270, 1953828319, 2016734406, 94664151, 63858084, 3371365093, 1466731069, 50761342, 4009159615, 684646723, 1681588138, 212570156, 4106603685, 410177418, 2446303430, 3372620550, 3718081811, 2538537002, 2096902127, 3891689388, 3594863629, 2436873525, 2843206047, 4231244828, 3507729621, 2375044835, 225084024, 2341319861, 3792196027, 3303575173, 4236737636, 2978231550, 498487294, 414953901, 893932737, 492566624, 912655913, 2521740052, 386973697, 169891456, 1911435984, 3650304021, 3060845523, 1595076924, 3418496586, 1928661654, 2251199925, 302688848, 1268696548, 621579232, 432012319, 1714348668, 1023688124, 3217030641, 147911810, 1563398861, 4151766412, 1886154537, 3098788204, 469450086, 2684400116, 1620020128, 1309138819, 426123826, 1171896562, 574768195, 4257693286, 829700648, 3960357363, 3945129278, 3595839146, 609161750, 4068190797, 2748235302, 2003426804, 2334845894, 1807389266, 3876325789, 2646479060, 2211439193, 3651705790, 2101735727, 2615530227, 3591563145, 2269264218, 1566467780, 2428263427, 4209729528, 2475565386, 1953678704, 3031427367, 1181886992, 750764302, 3035936254, 933597899, 3621654952, 2792491433, 3631830988, 453501363, 2074147244, 3892451141, 181595551, 1898267069, 4110040187, 4225741972, 229084617, 4289967029, 456759202, 4030361167, 3126333409, 1475133644, 1592310247, 4099759367, 2273320594, 2267543014, 4100145644, 1853039170, 3836624868, 4288808565, 1758184321, 4082683814, 2842269938, 822720990, 1591592885, 2293640729, 1743988187, 1739434659, 2292391631, 2127281033, 527735059, 1666328008, 1171357615, 4231410989, 2620331147, 1277673614, 3360293045, 4277924422, 1807788795, 1553203839, 2532030756, 1329689333, 717715071, 3336537817, 881641896, 1093892463, 2417689275, 2889638467, 3470270544, 3804809578, 2807767997, 3888482021, 423664425, 1581283572, 2038903110, 2568730564, 621207193, 3044726067, 3566286715, 2753289650, 3719426915, 2026597772, 554209267, 4092503599, 194321795, 3490532526, 4214272852, 267765911, 3268273286, 2971120641, 1508605443, 500175507, 4055506041, 2548649740, 1932431471, 385824183, 351580515, 4118659764, 2871404970, 1939176631, 743859784, 3477451348, 2329181623, 1078515532, 3780891483, 1405663527, 4184747478, 2603703700, 2282252022, 3459615493, 2421716649, 2895427305, 394957635, 2264205902, 200293917, 4135914392, 3847687092, 2053074876, 1981389177, 304977825, 1311117127, 920801204, 1810541567, 1484274478, 849222143, 2521151195, 1525031898, 1617910654, 274366641, 3354075096, 560692763, 1700613417, 4261631650, 3488621825, 4056739490, 209718373, 2294503391, 1784528329, 3536973427], "pos": 183}}]</state>
   </prng>
   <output prefix='simulation'>
      <properties shape='(5)' stride='40' flush='10'> [ step, time{picosecond}, conserved, temperature{kelvin}, potential ] </properties>
      <trajectory filename='pos' stride='4' format='ase' flush='100'>positions</trajectory>
      <checkpoint stride='200'>8</checkpoint>
   </output>
   <step>1400</step>
   <total_steps>2000</total_steps>
   <ffsocket mode='unix' name='macemp'>
      <address>driver</address>
   </ffsocket>
   <system>
      <forces>
         <force forcefield='macemp'>
         </force>
      </forces>
      <ensemble>
         <temperature>  9.50044560e-04</temperature>
         <eens>  8.95648341e-04</eens>
         <hamiltonian_weights shape='(1)'> [   1.00000000e+00 ] </hamiltonian_weights>
         <time>  2.89389611e+04</time>
      </ensemble>
      <motion mode='dynamics'>
         <dynamics mode='nvt'>
            <thermostat mode='svr'>
               <ethermo>  1.27996487e+05</ethermo>
               <tau>  4.13413730e+03</tau>
            </thermostat>
            <timestep>  2.06706865e+01</timestep>
            <nmts shape='(1)'> [ 1 ] </nmts>
         </dynamics>
      </motion>
      <beads natoms='96' nbeads='1'>
         <q shape='(1, 288)'>
          [  -2.95808537e+02,  -8.25054768e+01,  -2.93458758e+02,  -3.64111687e+01,  -1.16485080e+01, 
             -4.73764922e+01,   3.28291203e+02,   1.14090457e+02,   2.92643655e+02,   1.15383701e+01, 
             -2.73729476e+01,   1.85306924e+01,  -4.59025235e+00,   3.44210250e+01,  -2.88640422e+01, 
              4.20728838e+00,   1.80803140e+00,   1.45821264e+00,   2.59056877e+01,  -9.85769675e+00, 
              5.63347903e+00,  -2.92681005e+01,   1.51380198e+01,   1.22909600e+00,  -2.29954191e+00, 
              3.43593062e+01,  -2.77434788e+01,   4.79411341e+00,   9.25469607e+00,  -4.10144554e+00, 
              3.87365629e+01,   1.37405790e+01,   6.21765004e+00,  -7.04861650e+01,  -3.35020916e+01, 
              2.25952704e+01,   1.27962728e+01,  -2.73554714e+01,   2.06689597e+01,   4.48167085e+00, 
              4.76674288e+00,  -2.51718614e+00,  -5.22475875e+00,   4.80375274e+00,  -3.31432917e+01, 
             -1.12640953e+01,  -3.09717263e+01,  -5.73308594e+00,  -1.32336432e+02,  -2.76947996e+01, 
              6.07379842e+01,   4.52864831e+00,   1.02666552e+01,  -6.31317467e+00,  -1.30160013e+01, 
             -3.25289189e+01,  -6.48520273e+00,   4.02951731e+01,   1.53740166e+01,   7.02468880e+00, 
              6.60106416e+01,  -7.87323750e+01,  -9.54603054e+01,   5.95521039e+01,   1.22963468e+02, 
             -1.41867192e+02,   1.35348435e+02,   1.00884204e+02,   1.80558392e+02,  -1.05509726e+02, 
             -1.71984488e+01,  -1.66643288e+02,   3.74114730e+01,   1.16062949e+01,   5.83179722e+00, 
              4.90357165e+01,   4.28608075e+02,  -9.64959152e+02,  -1.05741564e+04,  -7.30450911e+03, 
             -1.40580339e+04,  -1.77869913e+01,   1.71385335e+01,   2.71899206e+01,   4.06534907e+01, 
              4.14592488e+01,  -6.25175848e+01,  -3.49802431e+01,   3.93207004e+01,   2.98957423e-01, 
             -8.87171555e+00,  -6.53432300e+01,  -3.34066594e+00,  -1.41544003e+01,   2.92098620e+01, 
              4.53335469e+01,   4.36265472e+00,   6.80131450e+00,  -3.70039025e+00,  -1.93921920e+01, 
              1.39480651e+01,   2.39054407e+01,  -3.75828657e+01,  -1.40080594e+00,   9.73239590e+00, 
              4.08690289e+00,   1.57903111e-01,  -4.78776534e-01,  -3.73545825e+01,   7.48155133e-01, 
              8.52273206e+00,  -7.65656047e+00,  -2.88379207e+01,   2.50470849e+01,  -9.98071954e+00, 
             -2.96211501e+01,   2.62043145e+01,   4.25147814e+00,   2.89356099e+00,  -9.96928853e-01, 
             -3.26200588e+00,   4.65656695e+00,  -3.49202444e+01,   2.56382846e+01,  -5.71815009e+01, 
              8.43802386e+01,  -4.21416523e+01,  -7.50676286e+01,  -5.73843002e+01,  -8.11053830e+00, 
             -2.80781683e+01,  -3.77651038e+00,  -1.01799796e+02,  -1.27684989e+02,   8.70624363e+01, 
              1.56024977e+01,  -2.49549924e+01,   4.22922533e+01,  -2.26489782e+01,   1.13981309e+01, 
              2.14663178e+01,   2.74657069e+01,  -8.10462630e+00,   5.41904836e+00,   8.29493883e+01, 
              1.04250322e+02,   1.34624055e+01,  -5.21955525e+01,  -9.52198684e+01,   6.88528159e+01, 
             -1.46660626e+00,   9.57884476e+00,   3.38993793e+01,  -5.73006210e+00,  -1.01830841e+02, 
              7.75162077e+01,   1.23365830e+02,   1.12465655e+02,  -6.42328224e+01,   7.91109110e-01, 
              1.09447704e+01,   2.18591724e+01,   1.50998106e+00,   9.62075728e+00,   2.00309485e+01, 
             -2.11625123e+00,   7.58211287e+00,   3.47749859e+01,  -9.36287388e+00,   3.74518298e+00, 
              1.43932488e+01,  -1.01756379e+01,   4.07006782e+00,   1.67502570e+01,  -1.85327933e+01, 
              1.51648430e+01,   2.57162757e+01,  -1.05074556e+03,   6.39506751e+02,   1.80843368e+03, 
              1.39290191e+01,   5.02507097e+01,  -2.40793598e+01,  -9.65907671e+00,  -1.66812376e-01, 
              3.80483146e+01,   1.14399963e+03,  -5.20156001e+02,  -1.82973415e+03,  -2.09506445e+01, 
              1.24723818e+01,   2.28487696e+01,  -8.52449555e+00,  -2.81267041e+01,   2.79400743e+01, 
             -1.15343559e+02,  -7.07499404e+01,  -1.23591522e+02,   7.07643931e+01,  -4.23312213e+01, 
             -1.29155340e+01,  -9.96266025e+00,  -2.95491643e+01,  -4.21142821e+00,   2.07557684e+01, 
             -3.20889994e-01,   3.98913285e+01,   2.28540707e+01,  -1.72470060e+00,   3.93038927e+01, 
              9.28452521e+00,  -1.34039575e+01,   1.34849581e+01,   1.85299504e+01,   4.90867022e-01, 
              4.06153436e+01,   1.07916458e+01,  -9.40688493e+00,   4.55383078e+01,  -4.35986592e+02, 
             -2.29113698e+01,  -5.03273278e+01,   5.01694151e+02,  -2.31559528e+02,   9.95473663e+02, 
              1.05067943e+04,   7.15709824e+03,   1.41617817e+04,  -3.04335440e+00,   5.44803205e+00, 
              3.55669874e+01,   4.78412459e-01,   1.34978711e+01,   3.21275017e+01,   1.67682398e+00, 
              8.67246186e+00,   2.23443096e+01,   1.51774628e+03,   2.12790160e+03,  -1.00991069e+02, 
             -2.42677094e+01,   1.01983014e+01,   1.99814380e+01,  -1.48901359e-01,   1.15715497e+01, 
              3.33920289e+01,  -1.52363157e+03,  -2.15888906e+03,   1.80705721e+02,  -9.96655498e+00, 
              5.25048772e+00,  -7.84405746e-01,   1.11423567e+01,   1.44000619e+01,   5.70271218e+01, 
              2.54347263e+01,  -5.82688209e+01,   8.24781426e+01,  -4.55594679e+01,   4.30529813e+01, 
              1.92181656e+01,  -1.11986550e+01,  -7.61828500e-01,   4.00189854e+01,  -1.76969847e+02, 
              4.49289588e+02,   3.58556872e+01,   1.15447948e+01,  -7.16428165e+00,   4.44832604e+01, 
              2.32679754e+02,  -4.74648128e+02,   3.04642044e+02,  -1.57112114e+01,   5.05022580e+00, 
              9.42095590e+01,  -3.87776675e+01,  -5.58169629e+01,  -2.83556172e+01,   1.20937426e+01, 
             -7.29289930e+00,   4.69588413e+01,   1.14318787e+01,  -1.00880064e+01,   4.32334398e+01, 
             -4.07149350e+01,   1.42124688e+02,   9.27017134e+01 ]
         </q>
         <p shape='(1, 288)'>
          [  -2.47359502e+01,  -6.79932598e+00,  -2.43016554e+01,  -3.03239623e+00,  -1.05962634e+00, 
             -4.38729202e+00,   2.65465206e+01,   9.36409196e+00,   2.38349260e+01,  -2.90107543e+00, 
             -3.60348861e+00,  -6.32823250e+00,   1.23554109e+01,   3.40446697e+00,   3.14963965e+00, 
              6.81367045e-01,   5.65564817e+00,  -1.14987182e+01,   1.23731598e+01,   7.20235970e+00, 
             -2.36823684e+00,  -2.06605637e+00,   9.59036281e-01,  -1.49688560e-01,  -1.27826413e+01, 
              1.74199190e+00,  -7.76405051e+00,  -4.12794787e+00,  -1.33826673e+00,  -3.48450141e+00, 
             -5.12280726e+00,  -5.82851610e+00,   3.30180549e+00,  -5.41837952e+00,  -2.91646760e+00, 
              1.76099331e+00,   4.83613836e+00,  -1.56971288e+00,   9.28350424e+00,   1.28463566e+01, 
              2.05170090e+00,  -4.61636079e+00,  -1.17460092e+00,   1.00751688e+00,  -3.33771507e+00, 
              8.13429339e+00,  -1.76274564e+01,  -1.25626150e+01,  -1.10868697e+01,  -1.93278273e+00, 
              5.14756087e+00,   1.39575308e+00,  -8.43227137e+00,   6.44340393e+00,  -9.86466303e+00, 
             -1.19314018e+00,   2.49816775e+00,   1.11724571e+01,   9.42252933e+00,  -1.77649175e+00, 
              5.29936658e+00,  -6.20735101e+00,  -7.98330789e+00,   4.67173070e+00,   1.03427395e+01, 
             -1.23124012e+01,   1.06406291e+01,   8.36759526e+00,   1.44935792e+01,  -8.89419483e+00, 
             -1.06466960e+00,  -1.41069940e+01,   3.17506220e+00,   4.24536867e-01,  -2.16833759e+00, 
              3.76328980e+00,   3.53900599e+01,  -8.16295252e+01,  -8.81477374e+02,  -6.09067262e+02, 
             -1.17247520e+03,  -1.35105203e+01,  -2.74613495e+00,  -1.79187979e+00,   3.04173059e+00, 
              3.06663862e+00,  -5.79004607e+00,  -2.81233496e+00,   2.71333088e+00,  -1.11271003e+00, 
             -1.23140297e+00,  -5.59931740e+00,  -1.25771460e+00,  -1.15437914e+00,   2.05620940e+00, 
              2.83274762e+00,  -2.04138199e+00,   2.72002794e+00,   5.42287992e-01,   4.80398773e+00, 
              2.43244599e+00,  -5.69243837e+00,  -1.10673310e+00,   8.17581769e+00,  -2.48500069e+00, 
              1.80848732e+00,   4.77932228e+00,  -3.32424809e+00,  -4.56902867e+00,  -8.24829767e+00, 
              2.14681550e+00,  -2.98138054e+00,  -4.92029171e+00,   2.65297452e+00,  -2.48747944e+00, 
             -4.03615850e+00,  -4.90504343e+00,  -6.38886740e+00,  -2.82184766e+00,   9.45586427e+00, 
              1.05037103e+00,   6.71018261e-01,  -3.59536386e+00,   2.59109060e+00,   1.10483679e+00, 
              1.62011771e+01,  -3.38962308e+00,  -5.92552572e+00,  -5.69617362e+00,   8.60551864e+00, 
              6.21259642e+00,   1.37738996e+00,  -8.57912756e+00,  -1.02152910e+01,   6.38960099e+00, 
              9.40143464e-01,  -1.81920562e+00,   2.20403336e+00,   4.92804790e+00,   4.74803620e+00, 
              1.78111773e+00,  -8.43018234e+00,  -9.61945955e+00,   3.08157917e+00,   6.77185167e+00, 
              8.67015460e+00,  -9.98549695e-02,  -4.67124602e+00,  -7.96430714e+00,   3.56734178e+00, 
              6.25571375e+00,  -5.14431602e-01,   4.32046868e+00,  -4.40656829e-01,  -8.56072287e+00, 
              4.95608312e+00,   1.01048246e+01,   8.96841693e+00,  -6.78504682e+00,  -5.76927047e+00, 
              9.44965623e+00,   4.48014154e+00,   2.99493306e+00,  -6.18194435e+00,   1.90819934e+00, 
             -2.01377709e+00,  -4.88435117e-01,   2.93358371e+00,  -2.75076576e+00,  -4.18934272e-01, 
              8.19742158e+00,   1.98502517e+00,   5.59111475e-01,  -9.06396625e+00,   6.22435824e+00, 
              1.36455362e+00,  -9.01199832e-01,  -8.61874767e+01,   5.27007964e+01,   1.47056503e+02, 
              1.45731829e+00,   4.29760334e+00,  -3.41796472e+00,  -2.08572975e+00,  -1.42811029e+00, 
             -7.37402432e-01,   9.43454595e+01,  -4.26523699e+01,  -1.52149618e+02,  -4.55504700e+00, 
             -1.76994638e+00,   7.39330368e+00,   3.79931015e+00,   2.08812917e+00,   4.76824612e+00, 
             -9.45365624e+00,  -5.54122878e+00,  -1.19114003e+01,   5.81527751e+00,  -3.14487226e+00, 
             -2.78073446e+00,  -9.53837424e+00,   4.12123317e+00,   3.05070679e+00,  -1.66644170e+00, 
              3.46912041e+00,   2.88025301e-01,   2.93712539e+00,  -5.50477546e-01,   2.89048050e+00, 
              1.56482465e-01,  -8.56375736e-01,  -4.60798372e-01,   4.43117516e+00,  -2.89731050e+00, 
              2.49984646e+00,  -1.47489596e+00,   2.84944442e+00,  -1.93692871e+00,  -3.63811953e+01, 
             -1.94234555e+00,  -6.80433851e+00,   4.10603453e+01,  -1.92079938e+01,   7.96512678e+01, 
              8.75106817e+02,   5.95956656e+02,   1.17895716e+03,   1.63248424e+00,   4.34250174e+00, 
             -6.20157252e+00,  -1.80966010e+00,  -7.05564236e-01,  -2.62916548e+00,   1.62324609e+00, 
             -1.30826558e+00,  -6.76586437e+00,   1.25060719e+02,   1.74740959e+02,  -1.05847919e+01, 
             -6.88400354e+00,   2.57072117e+00,   2.82768917e+00,  -2.22404690e-01,   4.50506869e+00, 
              3.14246998e+00,  -1.25079011e+02,  -1.77828786e+02,   1.25843435e+01,  -1.26117850e+00, 
              2.01797641e-01,  -2.05440697e+00,   1.73033192e+00,   1.27446785e+00,   2.38069677e+00, 
              1.90334158e+00,  -9.99564563e+00,  -5.75547335e+00,  -3.47925826e+00,   3.52592833e+00, 
             -6.54225174e-01,  -3.01538938e+00,  -1.45116534e+00,   4.51919032e+00,  -1.47934793e+01, 
              3.78723644e+01,   7.89791823e-01,  -5.18280318e-01,   5.72649927e+00,   5.68039058e+00, 
              1.93938142e+01,  -3.92446680e+01,   2.31525971e+01,  -1.50517335e+00,   6.63396657e-01, 
              5.49634869e+00,  -4.08123198e+00,  -5.18421624e+00,  -3.59651936e+00,   2.10628553e+00, 
             -5.05674764e-01,   6.11711631e+00,   2.23425524e+00,  -1.06320890e+01,  -3.48518734e+00, 
             -3.78640521e+00,   1.16346133e+01,   5.48981585e+00 ]
         </p>
         <m shape='(96)'>
          [   2.18941669e+04,   2.18941669e+04,   2.18941669e+04,   2.18941669e+04,   2.18941669e+04, 
              2.18941669e+04,   2.18941669e+04,   2.18941669e+04,   2.18941669e+04,   2.18941669e+04, 
              2.18941669e+04,   2.18941669e+04,   2.18941669e+04,   2.18941669e+04,   2.18941669e+04, 
              2.18941669e+04,   2.18941669e+04,   2.18941669e+04,   2.18941669e+04,   2.18941669e+04, 
              2.18941669e+04,   2.18941669e+04,   2.18941669e+04,   2.18941669e+04,   2.18941669e+04, 
              2.18941669e+04,   2.18941669e+04,   2.18941669e+04,   2.18941669e+04,   2.18941669e+04, 
              2.18941669e+04,   2.18941669e+04,   2.18941669e+04,   2.18941669e+04,   2.18941669e+04, 
              2.18941669e+04,   2.18941669e+04,   2.18941669e+04,   2.18941669e+04,   2.18941669e+04, 
              2.18941669e+04,   2.18941669e+04,   2.18941669e+04,   2.18941669e+04,   2.18941669e+04, 
              2.18941669e+04,   2.18941669e+04,   2.18941669e+04,   2.18941669e+04,   2.18941669e+04, 
              2.18941669e+04,   2.18941669e+04,   2.18941669e+04,   2.18941669e+04,   2.18941669e+04, 
              2.18941669e+04,   2.18941669e+04,   2.18941669e+04,   2.18941669e+04,   2.18941669e+04, 
              2.18941669e+04,   2.18941669e+04,   2.18941669e+04,   2.18941669e+04,   2.18941669e+04, 
              2.18941669e+04,   2.18941669e+04,   2.18941669e+04,   2.18941669e+04,   2.18941669e+04, 
              2.18941669e+04,   2.18941669e+04,   2.18941669e+04,   2.18941669e+04,   2.18941669e+04, 
              2.18941669e+04,   2.18941669e+04,   2.18941669e+04,   2.18941669e+04,   2.18941669e+04, 
              2.18941669e+04,   2.18941669e+04,   2.18941669e+04,   2.18941669e+04,   2.18941669e+04, 
              2.18941669e+04,   2.18941669e+04,   2.18941669e+04,   2.18941669e+04,   2.18941669e+04, 
              2.18941669e+04,   2.18941669e+04,   2.18941669e+04,   2.18941669e+04,   2.18941669e+04, 
              2.18941669e+04 ]
         </m>
         <names shape='(96)'>
          [ C, C, C, C, C, 
            C, C, C, C, C, 
            C, C, C, C, C, 
            C, C, C, C, C, 
            C, C, C, C, C, 
            C, C, C, C, C, 
            C, C, C, C, C, 
            C, C, C, C, C, 
            C, C, C, C, C, 
            C, C, C, C, C, 
            C, C, C, C, C, 
            C, C, C, C, C, 
            C, C, C, C, C, 
            C, C, C, C, C, 
            C, C, C, C, C, 
            C, C, C, C, C, 
            C, C, C, C, C, 
            C, C, C, C, C, 
            C, C, C, C, C, 
            C ]
         </names>
      </beads>
      <cell shape='(3, 3)'>
       [   2.45664393e+01,   1.50426056e-15,   2.46814445e-15,   0.00000000e+00,   2.45664393e+01, 
           2.46814445e-15,   0.00000000e+00,   0.00000000e+00,   4.03078577e+01 ]
      </cell>
   </system>
</simulation>
