96
Lattice="12.999999822259923 0.0 0.0 7.960204085623388e-16 12.999999822259923 0.0 1.306085793433437e-15 1.306085793433437e-15 21.32999970836955" Properties=species:S:1:pos:R:3 ipi_comment="Step:           0  Bead:       0 positions{ase}  cell{ase}" pbc="T T T"
C        2.59046896       0.07857000       1.05791599
C        1.38373098       1.75064998       4.09034794
C        2.97642796       0.19824400       1.46312798
C        1.02300399       1.53531098       0.75856299
C        0.89600399       2.11726497       0.18559900
C        0.72228599       2.83826196       3.89850895
C        0.50957799       1.73534498       2.50246497
C       -2.33249797       1.79572498       1.51747698
C       -1.69522398       1.15078298      -0.41652199
C       -1.66552298       0.37309899       3.82791595
C       -1.87471697       1.07853599       1.26372898
C       -2.22657097       0.56682099       0.80729199
C       -1.81366298       0.59810299       0.14688500
C       -2.70607096      -1.07995399       3.27603196
C       -3.07754696      -1.36905398       2.49217597
C       -1.66154398      -1.68418198       1.88159597
C       -0.61581799      -2.63203796       0.22858900
C       -0.20666000      -1.17872098       3.50380195
C        0.22377900      -2.52712197       1.13333398
C        0.80713299      -2.13027997       1.71707198
C        1.45922098      -2.45070597      -0.08287100
C        1.27454898      -1.42846798       4.21827394
C        3.10748096      -0.55478599       2.35223497
C        2.72645996      -0.85380499       1.97494797
C        2.55789097      -0.51884699       3.92077995
C        2.05448597       2.06122697       7.76468089
C        2.29581497       2.55111197       6.75426991
C        0.92463699       1.71461698       5.09607793
C        1.87953097       2.18543397       3.79254395
C       -0.37906799       2.90058996       7.31206390
C        0.02159800       2.30567797       7.37698090
C       -0.87693299       2.00734997       5.85267592
C       -0.64832499       1.89033397       5.06346493
C       -3.02409796       1.72366898       7.62572190
C       -1.94935997       1.04396899       6.10510792
C       -1.45553898      -0.14550400       5.26225793
C       -2.27298497      -0.73017199       4.71303294
C       -1.51881798      -1.61226398       8.22781589
C       -1.64863498      -1.28453498       7.06380490
C       -1.52708998      -1.59287898       6.13591292
C       -0.91560199      -2.26143097       4.62907394
C       -0.20125800      -2.23026197       7.50015190
C       -0.51603299      -2.20044197       6.93329791
C        0.98960199      -2.27743597       6.07748492
C        1.11245398      -1.78673098       4.61914194
C        2.04771897      -1.37714898       7.84999789
C        1.81899598      -0.77948799       7.15398290
C        2.42461797      -0.51533499       6.69856391
C        1.95577397       0.15885500       8.29758989
C        2.17707497       1.19001398      11.76247984
C        1.97173497       0.99041499      10.46153686
C        0.63463499       1.23851898       9.42366787
C        0.82087599       1.83546597       9.30926587
C       -0.54553799       2.58332696      12.36878383
C        0.37350199       1.59071898      11.12768785
C       -0.34621500       1.40846498      10.45991186
C       -1.04189099       1.88099797       8.76347888
C       -2.37772097       1.40712798      11.46155284
C       -1.69896298       1.29837098       9.88393286
C       -1.59692998      -0.62363099      10.95645785
C       -1.14241798       0.06839200       8.32027389
C       -2.09765297      -1.62546898      12.54964383
C       -1.35927298      -0.77764699      10.56049886
C       -0.83952199      -1.55161698       9.57922787
C       -0.62151699      -1.98782097       8.57363288
C       -0.56265299      -1.99253897      11.66596984
C       -0.14462800      -1.95983597      10.47858986
C        0.76709099      -1.69922698       9.43980787
C        1.19604898      -1.84889997       8.65961988
C        1.69586498      -1.28256298      12.02786984
C        1.43788098      -1.54953498      10.63634385
C        2.64965196      -0.53480899       8.79701588
C        2.28557697       0.52050099      12.96057982
C        2.13651597       0.33976200      16.96041377
C        2.54889197       1.11814798      14.57948780
C        2.51169797       1.22182998      14.08741881
C        0.56309099       2.47151597      12.83775882
C        0.16646100       1.75789098      16.88348477
C        0.57310599       1.93795697      15.79371978
C       -1.35901698       1.92833097      14.64980780
C       -1.07981799       2.42874697      13.01106882
C       -1.84481997       1.48001498      15.93304778
C       -1.63713798       1.53824898      14.67000880
C       -2.48338597       0.77785499      13.89609681
C       -1.76093998      -0.57721799      12.54413483
C       -2.00891697      -1.59198598      15.65441079
C       -2.30031597      -1.12772598      15.31397079
C       -2.45915197      -2.69431696      14.03191381
C       -0.46399999      -2.04088897      12.27791083
C       -0.22454500      -2.22279597      16.31474778
C        0.32799600      -2.51736297      14.50838280
C        1.23476798      -1.93174797      13.93502881
C        1.31834798      -2.08426097      13.31476282
C        1.85616097      -0.59511199      15.19261379
C        2.60421696      -1.31920498      14.52247580
C        2.67569196       0.24883900      13.85991181
96
Lattice="12.999999822259923 0.0 0.0 7.960204085623388e-16 12.999999822259923 0.0 1.306085793433437e-15 1.306085793433437e-15 21.32999970836955" Properties=species:S:1:pos:R:3 ipi_comment="Step:           4  Bead:       0 positions{ase}  cell{ase}" pbc="T T T"
C        0.95741470      -0.36854497      -0.56071549
C        1.20686891       1.54941596       4.15209388
C        4.68485726       0.74486157       3.09842403
C        1.05131985       1.37225934       0.87448744
C        0.86958739       2.22737846       0.07660994
C        0.71174498       2.87878948       3.88534800
C        0.51110236       1.72628555       2.50080619
C       -2.39860427       1.84804106       1.51199059
C       -1.70735362       1.29906294      -0.55148543
C       -1.66196229       0.37477807       3.81647327
C       -1.66990971       1.12643101       1.31463140
C       -2.51111478       0.46142077       0.85891305
C       -1.67539939       0.47664254       0.16355509
C       -2.65819386      -1.04901434       3.37101627
C       -3.11101842      -1.39796335       2.40396980
C       -1.65454406      -1.67361696       1.86996244
C       -0.63300180      -2.61617970       0.21936845
C       -0.21283635      -1.18624688       3.51157330
C        0.17336549      -2.56994563       1.08157053
C        0.90973060      -2.06548243       1.76150856
C        1.45194226      -2.43900643      -0.06216230
C        1.64094013      -0.73598734       3.40665958
C        3.87547965       0.09917367       3.26653281
C        1.80148788      -1.60201006       1.04654923
C        2.62489459      -0.49295630       3.95411071
C        2.05932235       2.06621385       7.77422694
C        2.29405462       2.55075123       6.72684824
C        0.89015255       1.69878665       5.14043862
C        2.08318090       2.37088069       3.66369498
C       -0.55166072       3.12712612       7.25798617
C        0.16941902       2.09137735       7.38994110
C       -0.91973185       2.04581571       6.01565136
C       -0.60150260       1.86909011       4.92261861
C       -3.01153582       1.72111366       7.62682663
C       -1.95353828       1.02255374       6.11268609
C       -1.44094002      -0.13762100       5.27275214
C       -2.29833007      -0.74134096       4.70216924
C       -1.56185432      -1.59766099       8.23383719
C       -1.60746929      -1.25949673       7.17987717
C       -1.51056900      -1.61015787       6.08348730
C       -0.91985800      -2.26329768       4.61750771
C       -0.02077060      -2.44485438       7.81492984
C       -0.76588409      -2.27312627       6.39426751
C        0.92405342      -2.30726212       6.18135473
C        0.69983478      -2.45900036       5.34155708
C        2.09351550      -1.49483293       7.95462180
C        1.62045176      -0.76556955       7.19266142
C        2.60428167      -0.42573312       6.56663908
C        1.92037450       0.20193811       8.28395787
C        2.03445922       0.88823664      11.98613957
C        1.96233937       0.97593323      10.45477421
C        0.46387215       0.71030545       9.59216295
C        1.03109564       2.37357498       9.13959263
C       -0.45172333       2.58727026      12.32290945
C        0.38849450       1.56426781      11.16520433
C       -0.41036102       1.35412656      10.43892306
C       -1.07333921       1.92004916       8.76193578
C       -2.34595540       1.30488876      11.45909581
C       -1.70896164       1.26368792       9.87603037
C       -7.27608440       2.86712645      20.67508101
C       -1.14764460       0.04390367       8.36457242
C       -2.21800070      -1.67405399      12.59731958
C        4.68224140      -3.68762807       0.48098986
C       -0.91628065      -1.55936874       9.59467494
C       -0.62992325      -2.05344428       8.70005827
C       -0.82284226      -2.01719850      10.50392713
C        0.06144374      -2.04248704      10.47314729
C        0.64660755      -1.66673550       9.44731044
C        1.13259684      -1.87290570       8.55945551
C        1.68729878      -1.29174605      12.02750945
C        1.43479412      -1.53921452      10.65597937
C        2.66178207      -0.54769827       8.80703424
C        2.36944214       0.50601462      13.19424347
C        0.93965787       0.27031308      16.70296066
C        4.05443692      -0.23898343      19.64341028
C        2.47298849       2.33678071       8.46166540
C        0.55462664       2.44038031      12.88436341
C        0.13930414       1.75288470      16.86986573
C        0.55660821       1.93926663      15.70362773
C        6.89680058      13.46366546      13.95105745
C       -1.16932099       2.47511616      12.99781881
C       -1.79383383       1.51651143      16.03845710
C       -9.89469993     -10.20136853      15.50100107
C       -2.45166197       0.85306849      13.81249570
C       -1.80326157      -0.48015802      12.76651031
C       -1.89678775      -1.77651220      15.74846863
C       -2.38087542      -0.85170697      15.19701316
C       -2.44861695      -2.70041537      14.04575484
C       -0.10250328      -2.11945103      13.66813395
C       -0.24587183      -2.23261694      16.30301350
C        0.29522234      -2.53559587      14.50273201
C        1.23514386      -1.82305150      14.25289500
C        1.27256004      -2.18619664      12.96631895
C        1.87327625      -0.67692502      15.23440766
C        2.61779012      -1.35274535      14.57490173
C        2.45545003       1.03075382      14.09810385
96
Lattice="12.999999822259923 0.0 0.0 7.960204085623388e-16 12.999999822259923 0.0 1.306085793433437e-15 1.306085793433437e-15 21.32999970836955" Properties=species:S:1:pos:R:3 ipi_comment="Step:           8  Bead:       0 positions{ase}  cell{ase}" pbc="T T T"
C       -0.65851968      -0.81307819      -2.15189197
C        0.91190976       1.20409053       3.95182826
C        6.43586154       1.36438111       4.66087514
C        1.08940061       1.15615008       1.04943560
C        0.83007449       2.38773056      -0.08127686
C        0.69249682       2.94297525       3.82864578
C        0.52543007       1.72663226       2.48719045
C       -2.53147287       1.95200780       1.52272651
C       -1.72142118       1.52858856      -0.74698483
C       -1.65502535       0.36001031       3.79830193
C       -1.33764743       1.17000579       1.38380488
C       -2.93915560       0.32044980       0.94690815
C       -1.45053005       0.26054780       0.16727003
C       -2.58065753      -0.99239365       3.52982345
C       -3.16111723      -1.44991502       2.24941433
C       -1.65145955      -1.66226799       1.86019854
C       -0.68222940      -2.59933858       0.18555502
C       -0.22613354      -1.18992435       3.52425018
C        0.08400835      -2.65618099       1.00369883
C        1.06945870      -1.96281427       1.87650684
C        1.52311550      -2.54545128      -0.20071788
C        1.98231654      -0.06645067       2.57998834
C        4.56823099       0.65227073       4.21558116
C        0.81440196      -2.21096436       0.26465354
C        2.73535514      -0.47849589       3.97352731
C        2.23362161       3.79351008       3.76490852
C      -40.86064167     -27.26484070     -50.68940009
C        0.58000675       1.52337098       5.33188492
C        2.32016097       2.58850695       3.34755353
C       -0.75655900       3.41736036       7.19058220
C        0.61286378       1.72720464       7.42516457
C       -0.95422376       2.10953995       6.21971768
C       -0.53583407       1.83315081       4.75270052
C       -2.98495542       1.70416612       7.62678620
C       -2.00147751       0.97479630       6.10646950
C       -1.40935558      -0.10015039       5.32079638
C       -2.36360030      -0.77954502       4.66892562
C       -1.62307732      -1.58914219       8.28769914
C       -1.58163600      -1.19885499       7.32053204
C       -1.55128557      -1.56744967       5.95224722
C       -0.90892213      -2.25872391       4.59044998
C        0.20564098      -2.74652444       8.17177400
C       -0.98012307      -2.43826685       5.74142759
C        0.85115895      -2.31737399       6.55169565
C        0.16912020      -3.14539393       5.79720129
C        2.16524661      -1.61035981       8.12161415
C        1.35912821      -0.70367000       7.27000735
C        2.85157671      -0.29505472       6.38318360
C        1.86796799       0.62540690       8.08169839
C        1.74417404       0.29299421      12.42580754
C        1.95947640       0.94776748      10.49705402
C        0.29117578       0.08197441       9.75631471
C        1.59185222       2.97053167       8.76818075
C       -0.25932069       2.62910929      12.11722638
C        0.44179620       1.56773884      11.24502872
C       -0.52120806       1.28315369      10.39273275
C       -1.16084900       1.92049326       8.75501004
C       -2.31196021       1.20106854      11.45102959
C       -1.71454211       1.24129874       9.85190149
C      -12.90924563       6.31161855      30.28660486
C       -1.15199685       0.06075212       8.42862761
C       -2.34050220      -1.74347689      12.66003672
C       10.84860314      -6.47536100      -9.46341685
C       -0.97411135      -1.40699336       9.49428919
C       -0.62981610      -2.18571465       8.86947587
C       -1.35601281      -2.17699964       9.60082484
C        0.51956642      -2.15559545      10.38789584
C        0.45252789      -1.57745083       9.44444959
C        1.06572497      -1.92961814       8.38684922
C        1.67936417      -1.30147528      12.02665370
C        1.44691604      -1.52222807      10.68489162
C        2.67105123      -0.61261944       8.79514578
C        2.43526048       0.44817780      13.32892134
C       -1.44392864       0.12242808      16.25024085
C        6.73811615      -1.49440624      24.84936883
C       45.35904460      31.87651832      64.74341048
C        0.58159789       2.40875511      12.95808260
C        0.10264339       1.73592042      16.86509508
C        0.54342920       1.93801202      15.60314709
C       15.07069328      24.88462853      13.25924187
C       -1.39923203       2.49186357      13.12554512
C       -1.73351328       1.54820760      16.14110422
C      -18.06978825     -21.82415011      16.32350613
C       -2.40072041       0.92955693      13.74022222
C       -1.84401528      -0.35871533      12.99440672
C       -1.71014226      -2.07240981      15.90720999
C       -2.52451628      -0.46619440      15.00688901
C       -2.43156229      -2.69018106      14.05489776
C       -0.42948739      -0.89706946      14.24535318
C       -0.28025656      -2.24354273      16.29995449
C        0.91622031      -3.86775664      15.31067428
C        1.21722832      -1.70039420      14.66975953
C        1.23773264      -2.30350698      12.48643387
C        1.90003070      -0.72636687      15.29760889
C        2.65701130      -1.38870482      14.62811294
C        2.25757545       1.83133246      14.45864510
96
Lattice="12.999999822259923 0.0 0.0 7.960204085623388e-16 12.999999822259923 0.0 1.306085793433437e-15 1.306085793433437e-15 21.32999970836955" Properties=species:S:1:pos:R:3 ipi_comment="Step:          12  Bead:       0 positions{ase}  cell{ase}" pbc="T T T"
C       -2.25905167      -1.25317172      -3.72427976
C        0.59633748       0.83553409       3.66444091
C        8.15577048       1.97099719       6.20387327
C        1.12601413       0.95646452       1.22591426
C        0.79161333       2.53275235      -0.22509957
C        0.67778953       3.00403232       3.75206192
C        0.54445030       1.72848827       2.47061573
C       -2.66519808       2.04724634       1.53275986
C       -1.73110026       1.74959661      -0.93451535
C       -1.64322176       0.33219482       3.77508365
C       -1.00637719       1.21131026       1.44708002
C       -3.35741841       0.18444604       1.03685392
C       -1.23190272       0.05484242       0.17013799
C       -2.50994164      -0.94027067       3.64510172
C       -3.19475000      -1.49718998       2.09640865
C       -1.65351750      -1.64628150       1.85398658
C       -0.84753387      -2.59941868       0.12423221
C       -0.25107653      -1.19756098       3.54275353
C        0.00053875      -2.78062565       1.03375145
C        1.22638870      -1.86154182       2.00937217
C        1.87955334      -2.94879467      -0.72406158
C        2.31752595       0.58887494       1.76083464
C        5.25876243       1.19637373       5.15234783
C       -0.34034328      -2.45318210      -0.21563208
C        2.85566542      -0.46085675       3.98384359
C        2.47725124       6.08469801      -1.51767718
C      -97.89981833     -66.67673730    -126.55864181
C        0.20526053       1.28961035       5.56453329
C        2.53896133       2.79979474       2.98640789
C       -0.94650528       3.68549710       7.12429747
C        1.12609817       1.35204195       7.46964374
C       -0.98271369       2.17383125       6.40235875
C       -0.48775761       1.81199060       4.59538928
C       -2.94161063       1.67838211       7.62333396
C       -2.06065382       0.92868289       6.11146954
C       -1.37594975      -0.05413601       5.38433141
C       -2.44556850      -0.81943315       4.66884548
C       -1.66015179      -1.58903112       8.39177353
C       -1.55778210      -1.10809253       7.41990577
C       -1.64400923      -1.44447708       5.82826567
C       -0.86868056      -2.22792742       4.46297296
C        0.39110753      -3.05008752       8.54888331
C       -1.14507544      -2.70671313       5.15513292
C        0.79375346      -2.31363851       6.95184986
C       -0.37740526      -3.83883549       6.21498066
C        2.26182054      -1.70303048       8.29931453
C        1.09549763      -0.62391448       7.35962363
C        3.09421246      -0.16255379       6.20283543
C        1.82015476       1.14963306       7.82313742
C        1.44146677      -0.30669075      12.82384377
C        1.94501698       0.91404473      10.55653437
C        0.13220116      -0.55975224       9.91147903
C        2.25154006       3.56215790       8.32978634
C       -0.08407513       2.67671892      11.89934995
C        0.50732535       1.57546440      11.32106296
C       -0.61903315       1.19781282      10.34760355
C       -1.27061047       1.90994941       8.73759361
C       -2.27575241       1.09751774      11.43818685
C       -1.73184199       1.22176395       9.82324147
C      -18.48631755       9.72181389      39.80242694
C       -1.14054552       0.07581608       8.49377234
C       -2.45623795      -1.81228296      12.74143299
C       16.95356680      -9.23533662     -19.30880734
C       -0.94976440      -1.03825088       9.35432271
C       -0.56108936      -2.37461753       8.97944811
C       -1.98417882      -2.53907335       8.81999106
C        0.92891630      -2.34230822      10.34363291
C        0.20449868      -1.41220989       9.33418021
C        0.97974972      -1.98076906       8.22395310
C        1.67848284      -1.28448840      12.03230414
C        1.51155289      -1.47533899      10.71631270
C        2.66473077      -0.67433440       8.77478876
C        2.51759108       0.40141225      13.50463965
C       -3.80650928      -0.00986022      15.80536367
C        9.39507407      -2.73732884      30.00349174
C      101.98599131      70.44004585     141.03209108
C        0.62952714       2.37651448      13.05493134
C        0.05658374       1.71467754      16.85046673
C        0.53850346       1.93665958      15.50254139
C       23.16319872      36.19187328      12.57431469
C       -1.63173887       2.50007912      13.25196392
C       -1.66113057       1.56969020      16.24731645
C      -26.16347734     -33.33120390      17.13782152
C       -2.34337142       0.99646072      13.66435119
C       -1.88480320      -0.23975076      13.22556131
C       -1.51836981      -2.36378359      16.05327207
C       -2.65668240      -0.08601296      14.81261388
C       -2.40743716      -2.66443410      14.05767929
C       -1.38717457       1.55058045      14.11463315
C       -0.32363300      -2.25672511      16.30695256
C        2.17117963      -6.40716669      16.80876101
C        1.13233127      -1.61759353      15.08779187
C        1.20203762      -2.43428313      11.99494593
C        1.93719864      -0.74877477      15.37721413
C        2.72035351      -1.42160790      14.67498172
C        2.04932023       2.61631007      14.81440430
96
Lattice="12.999999822259923 0.0 0.0 7.960204085623388e-16 12.999999822259923 0.0 1.306085793433437e-15 1.306085793433437e-15 21.32999970836955" Properties=species:S:1:pos:R:3 ipi_comment="Step:          16  Bead:       0 positions{ase}  cell{ase}" pbc="T T T"
C       -3.84373045      -1.68877247      -5.28111884
C        0.28347265       0.47190155       3.37829495
C        9.85643493       2.57089959       7.73083987
C        1.16419092       0.76906566       1.40217951
C        0.75138240       2.66623530      -0.35994025
C        0.66684993       3.04983095       3.66605818
C        0.56373960       1.72837968       2.45677813
C       -2.78884617       2.12295678       1.53736217
C       -1.73526765       1.95964710      -1.10898037
C       -1.62608158       0.29220427       3.75648812
C       -0.69026880       1.25211688       1.50136637
C       -3.75978622       0.05358181       1.13106236
C       -1.02232796      -0.12761202       0.17985893
C       -2.45194986      -0.89162078       3.65474656
C       -3.20923334      -1.53303780       1.94866465
C       -1.66653758      -1.62729300       1.84980739
C       -1.56450313      -2.75178709       0.39972064
C       -0.28196991      -1.20317724       3.55973071
C       -0.05618601      -2.90911671       1.13462848
C        1.36987691      -1.76850999       2.14046856
C        2.21926144      -3.34637590      -1.23574651
C        2.64707990       1.23873774       0.95142938
C        5.94101520       1.73341207       6.08081331
C       -0.93140963      -2.52867873      -1.10017156
C        2.97327012      -0.43757120       3.99972850
C        2.71834583       8.35195759      -6.74726255
C     -154.37155862    -105.69655700    -201.67312217
C       -0.16447692       1.05374545       5.80982321
C        2.74321673       3.00713395       2.63135860
C       -1.13359239       3.93359355       7.05240991
C        1.31489920       0.98773148       7.35195964
C       -1.01642396       2.23805815       6.58348825
C       -0.43963633       1.80533039       4.42241487
C       -2.87834764       1.64743850       7.61502977
C       -2.11927351       0.90170505       6.13945142
C       -1.34186072      -0.00944007       5.44111211
C       -2.53710297      -0.84588448       4.76824655
C       -1.68885228      -1.58947750       8.51766553
C       -1.52591881      -0.99762230       7.47628836
C       -1.73888774      -1.31779798       5.70815975
C       -0.74302764      -2.08935522       4.13680484
C        0.55595859      -3.36681977       8.92422069
C       -1.36421727      -3.10089749       4.77305657
C        0.72178842      -2.32119474       7.31412493
C       -0.92020214      -4.50580675       6.62707598
C        2.36879707      -1.80173447       8.47602075
C        0.83593932      -0.53632896       7.45049761
C        3.33185656      -0.03260541       6.01788269
C        2.09097266       1.64853983       7.73510589
C        1.14761063      -0.88601288      13.22396905
C        1.91428758       0.88404108      10.61819466
C        0.00894979      -1.12568863      10.16248497
C        2.90263246       4.14492022       7.89408588
C        0.09185811       2.72661893      11.69265237
C        0.57738508       1.57359309      11.37718696
C       -0.68232842       1.10926838      10.32201704
C       -1.38890410       1.89865390       8.70390455
C       -2.23739964       0.99532797      11.41485831
C       -1.77508966       1.19701572       9.79569950
C      -24.00790771      13.09808398      49.22358386
C       -1.12821439       0.10074691       8.54596033
C       -2.56461992      -1.87884615      12.84097359
C       22.99779713     -11.96785548     -29.05625405
C       -0.96029927      -0.66050111       9.21970670
C       -0.50647164      -2.58062177       9.08591470
C       -2.61148980      -2.92956535       8.06513220
C        1.29993168      -2.57949829      10.28136602
C       -0.00481651      -1.32392249       9.11488977
C        0.88341004      -2.00034203       8.09868287
C        1.68350522      -1.25375447      12.04884512
C        1.61195986      -1.37512403      10.73591701
C        2.65525833      -0.70991106       8.76048219
C        2.59270608       0.34792016      13.68546785
C       -6.13839319      -0.13436461      15.37011375
C       12.02560008      -3.96788662      35.10634048
C      158.04960260     108.61993623     216.56183766
C        0.68164176       2.34738877      13.15612012
C        0.00049208       1.69413652      16.81616373
C        0.54541671       1.94122312      15.41048210
C       31.17519840      47.38663146      11.89620129
C       -1.86174870       2.51072674      13.27076185
C       -1.57631919       1.58851603      16.35325913
C      -34.17664889     -44.72378336      17.94403595
C       -2.29608347       1.05917679      13.58878334
C       -1.93041333      -0.13576801      13.45438421
C       -1.34833240      -2.65811194      16.18595894
C       -2.78900500       0.29158637      14.60894714
C       -2.38052957      -2.62687765      14.05375946
C       -2.33029270       3.97276126      14.09855269
C       -0.33990180      -2.26097808      16.30573931
C        3.41364223      -8.92137200      18.29202940
C        1.02817135      -1.55230655      15.51003894
C        1.15423772      -2.58685519      11.51505873
C        1.97621536      -0.74863435      15.46887863
C        2.79079378      -1.45865709      14.70949308
C        1.82361105       3.38303537      15.16683439
96
Lattice="12.999999822259923 0.0 0.0 7.960204085623388e-16 12.999999822259923 0.0 1.306085793433437e-15 1.306085793433437e-15 21.32999970836955" Properties=species:S:1:pos:R:3 ipi_comment="Step:          20  Bead:       0 positions{ase}  cell{ase}" pbc="T T T"
C       -5.41267837      -2.12003886      -6.82252052
C       -0.03398857       0.11620947       3.10175969
C       11.54021896       3.16484275       9.24263575
C        1.20935109       0.59274666       1.57528336
C        0.70873388       2.79298761      -0.49116415
C        0.65439097       3.07829381       3.57434907
C        0.58175374       1.71975721       2.43884524
C       -2.90944864       2.18579028       1.53671875
C       -1.73438348       2.16459169      -1.27511069
C       -1.60239487       0.25193588       3.74382217
C       -0.37868745       1.29151977       1.55294491
C       -4.14785598      -0.07784141       1.23096688
C       -0.81608841      -0.29847878       0.19748643
C       -2.39820498      -0.84088354       3.59570159
C       -3.21257956      -1.55470666       1.80422937
C       -1.68710861      -1.61061647       1.83255351
C       -2.28508736      -2.90620392       0.70589338
C       -0.27654733      -1.14214066       3.53636113
C       -0.11689814      -3.02771966       1.23567234
C        1.50292678      -1.67804339       2.26728655
C        2.55528559      -3.74003880      -1.74202766
C        2.96159002       1.88514410       0.15714653
C        6.61558102       2.26432739       7.00005637
C       -1.49492195      -2.59649442      -1.99841435
C        3.09107578      -0.41164814       4.02890621
C        2.95704312      10.59667219     -11.92484595
C     -210.28175305    -144.32836991    -276.04067626
C       -0.53877867       0.83179646       6.05390806
C        2.93710366       3.20680302       2.27819268
C       -1.31767853       4.16008475       6.97651212
C        1.33414034       0.55489062       7.15340908
C       -1.05422618       2.30202703       6.76416107
C       -0.37991651       1.79959353       4.24865335
C       -2.79583489       1.61331220       7.60168729
C       -2.18137278       0.89551417       6.19033461
C       -1.29780032       0.03851131       5.48673836
C       -2.65397229      -0.87146145       4.91969697
C       -1.72848370      -1.63405246       8.66341636
C       -1.49485844      -0.87546608       7.48707055
C       -1.82599423      -1.20655827       5.60483551
C       -0.62767025      -2.00276998       3.82903129
C        0.72312821      -3.67867750       9.29726092
C       -1.59150559      -3.50532602       4.42148334
C        0.59092628      -2.43267915       7.42013122
C       -1.45873739      -5.15760842       7.03401304
C        2.46111798      -1.92099444       8.64332717