120
Lattice="10.411913203182273 0.0 0.0 0.0 10.411913203182273 0.0 0.0 0.0 10.411913203182273" Properties=species:S:1:pos:R:3 ipi_comment="Step:           0  Bead:       0 positions{ase}  cell{ase}" pbc="T T T"
C        2.34866097       0.00000000       0.00000000
C        2.03399997       1.17433098       3.54999995
C        2.03399997       1.17433098       2.12999997
C        1.17433098       2.03399997       1.41999998
C        1.17433098       2.03399997       0.00000000
C        0.00000000       2.34866097       3.54999995
C        0.00000000       2.34866097       2.12999997
C       -1.17433098       2.03399997       1.41999998
C       -1.17433098       2.03399997       0.00000000
C       -2.03399997       1.17433098       3.54999995
C       -2.03399997       1.17433098       2.12999997
C       -2.34866097       0.00000000       1.41999998
C       -2.34866097       0.00000000       0.00000000
C       -2.03399997      -1.17433098       3.54999995
C       -2.03399997      -1.17433098       2.12999997
C       -1.17433098      -2.03399997       1.41999998
C       -1.17433098      -2.03399997       0.00000000
C        0.00000000      -2.34866097       3.54999995
C        0.00000000      -2.34866097       2.12999997
C        1.17433098      -2.03399997       1.41999998
C        1.17433098      -2.03399997       0.00000000
C        2.03399997      -1.17433098       3.54999995
C        2.03399997      -1.17433098       2.12999997
C        2.34866097       0.00000000       1.41999998
C        2.34866097       0.00000000       4.25999994
C        2.03399997       1.17433098       7.80999989
C        2.03399997       1.17433098       6.38999991
C        1.17433098       2.03399997       5.67999992
C        1.17433098       2.03399997       4.25999994
C        0.00000000       2.34866097       7.80999989
C        0.00000000       2.34866097       6.38999991
C       -1.17433098       2.03399997       5.67999992
C       -1.17433098       2.03399997       4.25999994
C       -2.03399997       1.17433098       7.80999989
C       -2.03399997       1.17433098       6.38999991
C       -2.34866097       0.00000000       5.67999992
C       -2.34866097       0.00000000       4.25999994
C       -2.03399997      -1.17433098       7.80999989
C       -2.03399997      -1.17433098       6.38999991
C       -1.17433098      -2.03399997       5.67999992
C       -1.17433098      -2.03399997       4.25999994
C        0.00000000      -2.34866097       7.80999989
C        0.00000000      -2.34866097       6.38999991
C        1.17433098      -2.03399997       5.67999992
C        1.17433098      -2.03399997       4.25999994
C        2.03399997      -1.17433098       7.80999989
C        2.03399997      -1.17433098       6.38999991
C        2.34866097       0.00000000       5.67999992
C        2.34866097       0.00000000       8.51999988
C        2.03399997       1.17433098      12.06999983
C        2.03399997       1.17433098      10.64999985
C        1.17433098       2.03399997       9.93999986
C        1.17433098       2.03399997       8.51999988
C        0.00000000       2.34866097      12.06999983
C        0.00000000       2.34866097      10.64999985
C       -1.17433098       2.03399997       9.93999986
C       -1.17433098       2.03399997       8.51999988
C       -2.03399997       1.17433098      12.06999983
C       -2.03399997       1.17433098      10.64999985
C       -2.34866097       0.00000000       9.93999986
C       -2.34866097       0.00000000       8.51999988
C       -2.03399997      -1.17433098      12.06999983
C       -2.03399997      -1.17433098      10.64999985
C       -1.17433098      -2.03399997       9.93999986
C       -1.17433098      -2.03399997       8.51999988
C        0.00000000      -2.34866097      12.06999983
C        0.00000000      -2.34866097      10.64999985
C        1.17433098      -2.03399997       9.93999986
C        1.17433098      -2.03399997       8.51999988
C        2.03399997      -1.17433098      12.06999983
C        2.03399997      -1.17433098      10.64999985
C        2.34866097       0.00000000       9.93999986
C        2.34866097       0.00000000      12.77999983
C        2.03399997       1.17433098      16.32999978
C        2.03399997       1.17433098      14.90999980
C        1.17433098       2.03399997      14.19999981
C        1.17433098       2.03399997      12.77999983
C        0.00000000       2.34866097      16.32999978
C        0.00000000       2.34866097      14.90999980
C       -1.17433098       2.03399997      14.19999981
C       -1.17433098       2.03399997      12.77999983
C       -2.03399997       1.17433098      16.32999978
C       -2.03399997       1.17433098      14.90999980
C       -2.34866097       0.00000000      14.19999981
C       -2.34866097       0.00000000      12.77999983
C       -2.03399997      -1.17433098      16.32999978
C       -2.03399997      -1.17433098      14.90999980
C       -1.17433098      -2.03399997      14.19999981
C       -1.17433098      -2.03399997      12.77999983
C        0.00000000      -2.34866097      16.32999978
C        0.00000000      -2.34866097      14.90999980
C        1.17433098      -2.03399997      14.19999981
C        1.17433098      -2.03399997      12.77999983
C        2.03399997      -1.17433098      16.32999978
C        2.03399997      -1.17433098      14.90999980
C        2.34866097       0.00000000      14.19999981
O       -0.75299999       1.96899997      10.57899986
H       -1.07399999       1.06799999      10.33899986
H        0.00500000       2.08499997       9.98999986
O        0.33800000       0.70599999      15.39799979
H        0.70099999       1.58099998      15.54499979
H        0.61699999       0.49899999      14.42199980
O        0.92099999       1.27499998       5.05799993
H        1.18399998       0.43399999       4.65199994
H        1.71899998       1.83999997       5.04799993
O        1.67399998      -0.91599999      16.97599977
H        0.86999999      -0.42299999      16.80999877
H        1.76999998      -1.53899998      16.25200078
O        1.00899999       1.00499999      12.90999982
H        0.61399999       1.63799998      12.31499983
H        1.21499998       0.21200000      12.38299983
O        1.57999998      -1.55099998      11.78799984
H        2.18999997      -1.99999997      11.17199985
H        0.69599999      -1.94399997      11.64099984
O       -0.81199999       0.28100000       7.11399990
H       -0.01200000       0.68999999       6.70299991
H       -1.44699998       0.92899999       6.92999991
O        0.77799999       1.42199998       1.19999998
H        1.20099998       0.89199999       0.55999999
H        0.05600000       0.90599999       1.41499998
120
Lattice="10.411913203182273 0.0 0.0 0.0 10.411913203182273 0.0 0.0 0.0 10.411913203182273" Properties=species:S:1:pos:R:3 ipi_comment="Step:           4  Bead:       0 positions{ase}  cell{ase}" pbc="T T T"
C        2.36134189       0.01042524       0.00453345
C        2.09964927       1.16346530       3.43775391
C        2.09858499       1.16890953       2.20729330
C        1.29562978       2.22374596       1.51067649
C        1.18622499       2.04548598      -0.02831759
C       -0.03372149       2.39135453       3.52129096
C       -0.02440573       2.36739165       2.17020598
C       -1.22021630       2.05160333       1.40184134
C       -1.19612084       2.04008589      -0.01260793
C       -2.03537153       1.17560374       3.53925609
C       -2.03302584       1.17269242       2.12535976
C       -2.35622658      -0.00372104       1.42070527
C       -2.34199234       0.01153561       0.01266959
C       -2.02796791      -1.18054839       3.54814190
C       -2.03012696      -1.16885335       2.13641095
C       -1.16651369      -2.02256604       1.40913791
C       -1.17993959      -2.01614557      -0.00261720
C        0.00030573      -2.35415306       3.55559719
C        0.00422137      -2.34569744       2.13626630
C        1.15660344      -2.05063055       1.41053543
C        1.16613719      -2.02987876       0.00439935
C        2.04109651      -1.17892592       3.56437543
C        2.03761732      -1.16935860       2.13234178
C        2.37701334      -0.02439914       1.43220846
C        2.38605535      -0.01866656       4.23532559
C        2.03240588       1.17701965       7.80902215
C        2.10118614       1.14358143       6.46021586
C        1.17186494       2.13738864       5.74446429
C        1.16452620       2.05603351       4.22046801
C        0.00483871       2.33590902       7.84395334
C       -0.04624131       2.41445499       6.43385506
C       -1.17597890       2.05355217       5.68854161
C       -1.16416289       2.03475643       4.26242588
C       -2.03368858       1.16968329       7.82168265
C       -2.05852117       1.16732774       6.36811980
C       -2.36739671      -0.00258402       5.67216662
C       -2.34707982       0.00066726       4.27001497
C       -2.01525439      -1.17609386       7.81586909
C       -2.02906471      -1.15849447       6.38469011
C       -1.18760189      -2.03520513       5.67705887
C       -1.18487037      -2.04331651       4.26262011
C       -0.00123545      -2.34805506       7.80832561
C       -0.01360265      -2.34982098       6.39456773
C        1.18305046      -2.03969666       5.67916050
C        1.18116243      -2.03012466       4.27053669
C        2.04772943      -1.16760932       7.81325444
C        2.02386729      -1.16106811       6.39588901
C        2.39464875      -0.03096164       5.72216319
C        2.33773670       0.00734985       8.48278346
C        2.05761133       1.14766931      12.08553379
C        2.04999673       1.15143723      10.65039893
C        1.14812968       2.08499409      10.03874616
C        1.10002042       1.99596580       8.56095971
C        0.22248643       2.46966431      12.04375558
C        0.40495145       2.96398830      11.03465729
C       -1.60716964       2.25092615       9.42829361
C       -1.11471177       2.01474894       8.59103825
C       -2.03999579       1.12711898      12.12015014
C       -2.12356006       1.11816281      10.58630020
C       -2.39188905       0.01803160       9.95138761
C       -2.36022058      -0.01066986       8.52134567
C       -2.04684225      -1.17224655      12.06836568
C       -2.03780005      -1.20699164      10.66023823
C       -1.16693054      -2.04156678       9.94520845
C       -1.16292704      -2.02949317       8.50945578
C       -0.07984684      -2.38353469      12.11786490
C       -0.03346324      -2.38916052      10.62216945
C        1.16646388      -2.01917477       9.88482275
C        1.17384421      -2.04680833       8.54015579
C        2.82393227      -0.54394737      12.53706940
C        2.05527194      -1.12756550      10.60522197
C        2.34867463      -0.00634863       9.90931087
C        2.38339879       0.01616556      12.79108062
C        2.03499268       1.16080004      16.33089110
C        2.02975843       1.19864198      14.89224475
C        1.19098766       2.04914641      14.19843001
C        1.16501990       2.08721038      12.75593655
C        0.00080194       2.35529231      16.34266395
C        0.01151564       2.35510569      14.89204474
C       -1.16814406       2.02930034      14.19226801
C       -1.20399976       1.99803043      12.83698669
C       -2.03423770       1.17733927      16.30628717
C       -2.03652168       1.15814370      14.91260720
C       -2.35596176       0.00093609      14.20584993
C       -2.35734732      -0.01390187      12.79702233
C       -2.02792428      -1.17868732      16.32183919
C       -2.02578224      -1.17678477      14.91145869
C       -1.17659650      -2.03268218      14.22139968
C       -1.17722901      -2.03032877      12.77767654
C       -0.01619139      -2.35548088      16.32951618
C       -0.01116429      -2.35812822      14.90955968
C        1.18468564      -2.03640754      14.20109926
C        1.12328742      -2.09448897      12.96898795
C        2.24498698      -0.99682117      16.20019712
C        2.04144807      -1.15942638      14.90158932
C        2.33815158       0.01856271      14.19433612
O       -1.46310553       1.64389717      11.21832989
H        0.19322613      -1.18144402      10.04839194
H       10.29052962       0.91271682      -2.12427605
O        0.34303596       0.68603179      15.39028480
H        0.71613307       1.62850018      15.57255853
H        0.61962010       0.50910429      14.37693186
O        0.81380439       1.15991641       5.00177149
H        1.07002349       0.57286649       4.67447560
H        1.83941367       1.97058614       5.11849121
O        1.60323209      -0.86252309      17.09634653
H        0.89997193      -0.26053337      16.83226299
H        0.21765562      -4.94231096      15.75789250
O        0.98408041       0.96995302      12.99012143
H        0.39479587       1.60851141      11.63898347
H        1.08118753       0.37850355      12.25778842
O        1.15177482      -2.01145370      11.35194324
H        2.13002519      -2.11402634      11.98737187
H       -0.03954400      -1.76027679      11.19174505
O       -0.76838606       0.27745316       7.13278858
H       -0.09616706       0.50094323       6.72080239
H       -1.43784682       0.90175189       7.22459396
O        0.67411091       1.25638934       1.10315987
H        0.98783439       0.99284405       0.47856745
H        0.17355474       0.91739776       1.45883243
120
Lattice="10.411913203182273 0.0 0.0 0.0 10.411913203182273 0.0 0.0 0.0 10.411913203182273" Properties=species:S:1:pos:R:3 ipi_comment="Step:           8  Bead:       0 positions{ase}  cell{ase}" pbc="T T T"
C        2.37759090       0.01446712       0.00750611
C        2.17819484       1.15737026       3.34378544
C        2.19869210       1.16437788       2.28234078
C        1.46729952       2.49130881       1.62890091
C        1.20367266       2.07263454      -0.06643828
C       -0.07065981       2.44254685       3.49728914
C       -0.06142425       2.41570800       2.22195785
C       -1.28790576       2.07721816       1.38070600
C       -1.22090804       2.04423538      -0.02566483
C       -2.03643672       1.17755325       3.53060003
C       -2.03388189       1.17239305       2.12211783
C       -2.36653838      -0.00739509       1.42196282
C       -2.32903596       0.02229081       0.02289160
C       -2.02318020      -1.18636474       3.54664754
C       -2.02768853      -1.16449294       2.14392234
C       -1.16086805      -2.01410069       1.40028450
C       -1.18160313      -1.99169989      -0.00737024
C        0.00090966      -2.36011459       3.56105469
C        0.00742675      -2.34517216       2.14415458
C        1.14281095      -2.06803635       1.40264219
C        1.15410576      -2.02046160       0.00661695
C        2.04916662      -1.18589681       3.57646306
C        2.04240506      -1.16532336       2.13455821
C        2.41629075      -0.06042208       1.44250431
C        2.42723375      -0.03417328       4.21182300
C        2.02936371       1.17899069       7.81635221
C        2.18685300       1.11447010       6.54106557
C        1.16220238       2.27484384       5.86751112
C        1.16345182       2.10219877       4.13324987
C        0.01638692       2.32478607       7.89592300
C       -0.09296373       2.50057418       6.47975469
C       -1.18285555       2.08213633       5.69141215
C       -1.15465555       2.03379778       4.26388925
C       -2.06371888       1.17575056       7.87283766
C       -2.10478551       1.17988840       6.32147151
C       -2.39664624      -0.01182487       5.65717628
C       -2.34686159       0.00084120       4.27820122
C       -1.99898636      -1.18657488       7.83119403
C       -2.02697651      -1.15029402       6.37013582
C       -1.20245365      -2.03780637       5.67547099
C       -1.19521226      -2.05360223       4.26352843
C       -0.00160383      -2.34678371       7.80660756
C       -0.02409475      -2.35029509       6.39799892
C        1.18937014      -2.04652775       5.68032703
C        1.18665768      -2.02770341       4.27971719
C        2.05934967      -1.16071097       7.81589756
C        2.01360489      -1.14931015       6.40187190
C        2.44771732      -0.06097317       5.76565200
C        2.32803457       0.01069565       8.44985292
C        2.11047398       1.12662434      12.09683970
C        2.06377931       1.13277254      10.64577991
C        1.11635136       2.14073454      10.16432383
C        1.01455124       1.95401230       8.62443479
C        0.46817028       2.65504192      12.02154387
C        0.86886835       3.77259111      11.52185011
C       -2.15719798       2.53898555       8.94606058
C       -0.99377131       1.97200853       8.62155850
C       -2.11012648       0.90458587      12.43092534
C       -2.26989497       1.02939125      10.45035099
C       -2.43916582       0.03394527       9.96058196
C       -2.38821808      -0.02567470       8.52856741
C       -2.06062815      -1.17442089      12.06742495
C       -2.04486174      -1.24507100      10.67222013
C       -1.17347243      -2.05050340       9.94528831
C       -1.15379587      -2.02683843       8.49719702
C       -0.16954863      -2.43978046      12.18488021
C       -0.09952532      -2.47104379      10.56876007
C        1.22619006      -2.00365215       9.80533804
C        1.17784406      -2.06283980       8.55082086
C        3.81024268      -0.17600317      12.88666626
C        2.07741425      -1.08529545      10.55158076
C        2.34720930      -0.01108669       9.87597964
C        2.28009130       0.28888362      12.93892240
C        2.04233480       1.15639282      16.33333349
C        2.05418342       1.22401791      14.87750385
C        1.22206949       2.09015788      14.19735186
C        1.18651944       2.16528191      12.75672416
C       -0.00228062       2.36942438      16.36535772
C        0.01644640       2.37678428      14.86378735
C       -1.16322541       2.02591435      14.18053604
C       -1.22748684       1.97092241      12.93557958
C       -2.03250004       1.17613972      16.28651561
C       -2.03843412       1.14310769      14.91468381
C       -2.36583775       0.00185619      14.21161151
C       -2.37174868      -0.04132859      12.81990916
C       -2.01703942      -1.18028063      16.31709214
C       -2.02022936      -1.18030262      14.91335493
C       -1.17989254      -2.03438123      14.23896032
C       -1.18865711      -2.02401519      12.77995336
C       -0.03566373      -2.36301020      16.32806141
C       -0.02445918      -2.36729700      14.91556410
C        1.19844719      -2.04174778      14.21671646
C        1.06638030      -2.16769836      13.14871257
C        2.51596717      -0.84579128      15.99241638
C        2.04919103      -1.14339659      14.89054427
C        2.33689950       0.03210019      14.19598461
O       -2.34416371       1.39892211      11.80840500
H        0.89096771      -4.13305723       9.49519177
H       23.92336205      -0.65916408     -18.38936744
O        0.33784374       0.63900179      15.38207537
H        0.71560637       1.69589522      15.75842339
H        0.56524388       0.46010437      14.40715091
O        0.62941266       1.02309230       4.95510729
H        1.22285420       0.01694646       4.39882201
H        2.57227431       2.23181996       5.00680803
O        1.49167744      -0.79739869      17.28806303
H        0.83675392      -0.07511807      16.86890655
H       -1.34047294      -8.29900072      15.29311001
O        0.91889365       0.89666924      13.08896481
H       -0.02567909       1.47821326      10.53541650
H        0.86462640       0.35865252      11.95193715
O        0.75578094      -2.46405590      10.93204226
H        2.25359965      -2.39512683      12.86810136
H       -0.91552225      -1.08071400      10.86148370
O       -0.69409456       0.24426091       7.16491932
H        0.14207384       0.33458420       6.59417745
H       -1.23662674       0.96337987       7.28527366
O        0.54452142       1.04419207       0.97145488
H        0.85472337       0.85580156      -0.12067606
H       -0.23478175       0.50314963       1.86574949
120
Lattice="10.411913203182273 0.0 0.0 0.0 10.411913203182273 0.0 0.0 0.0 10.411913203182273" Properties=species:S:1:pos:R:3 ipi_comment="Step:          12  Bead:       0 positions{ase}  cell{ase}" pbc="T T T"
C        2.39225597       0.01608983       0.01226712
C        2.25519398       1.15612271       3.33996708
C        2.30196725       1.16994420       2.26888845
C        1.62936844       2.74226305       1.73522943
C        1.22141270       2.10301581      -0.09086988
C       -0.10497962       2.49584582       3.48702822
C       -0.09333492       2.47567836       2.25375629
C       -1.35112441       2.10912983       1.36067922
C       -1.24633453       2.04487581      -0.03892588
C       -2.03627561       1.18117720       3.52690468
C       -2.03742376       1.17317449       2.11929534
C       -2.38116178      -0.01187169       1.42474240
C       -2.31076913       0.03180878       0.02770531
C       -2.01965728      -1.19100689       3.54665484
C       -2.02640061      -1.16239918       2.15049902
C       -1.15734417      -2.00829869       1.39391107
C       -1.17985308      -1.96141342      -0.01411743
C        0.00109410      -2.36584690       3.56662892
C        0.00820959      -2.34728884       2.15283020
C        1.13443555      -2.08561664       1.39704269
C        1.13808909      -2.00653089       0.00526478
C        2.06240431      -1.19690126       3.58537477
C        2.04754280      -1.16578605       2.13609310
C        2.45488879      -0.08962647       1.44847482
C        2.46721227      -0.04689151       4.19451485
C        2.02361622       1.18208465       7.83555084
C        2.26900818       1.09729892       6.60410977
C        1.16379086       2.40209334       5.98204937
C        1.17084778       2.14581915       4.05706265
C        0.03052205       2.32491653       7.93468345
C       -0.13142839       2.59030416       6.52208332
C       -1.19530386       2.11174485       5.69256722
C       -1.15205260       2.03163723       4.26510126
C       -2.12449006       1.19469807       7.94211029
C       -2.16274008       1.20757653       6.26587269
C       -2.42990718      -0.02313928       5.64071680
C       -2.34850878      -0.00016639       4.28227194
C       -1.98601842      -1.19925527       7.84939483
C       -2.02634083      -1.14774102       6.35064567
C       -1.21792402      -2.04190740       5.67627604
C       -1.20446100      -2.06504020       4.26234023
C       -0.00171239      -2.34582699       7.80393258
C       -0.03094702      -2.35039979       6.39963819
C        1.19249867      -2.05445329       5.68432832
C        1.18978691      -2.03119149       4.28824859
C        2.06902330      -1.15504872       7.81731369
C        2.00392649      -1.14431877       6.40796485
C        2.50385442      -0.08105574       5.80378762
C        2.32189569       0.00998457       8.42273294
C        2.17245708       1.13391970      12.08529422
C        2.07484923       1.12300828      10.64209670
C        1.08447417       2.19009772      10.28686898
C        0.95316313       1.91435979       8.69741115
C        0.66166338       2.86264389      11.97400598
C        1.33085034       4.58430012      11.98403432
C       -2.72079351       2.82448729       8.48864525
C       -0.87552491       1.92808164       8.64805201
C       -2.10226947       0.52138627      13.15466652
C       -2.41548881       0.98116115      10.31065878
C       -2.49828136      -0.00063827       9.94539853
C       -2.42480525      -0.04256124       8.53755193
C       -2.07993087      -1.18818968      12.06841820
C       -2.06218955      -1.28255078      10.68558361
C       -1.20340088      -2.05998789       9.93290511
C       -1.14656034      -2.02633875       8.48330685
C       -0.23751273      -2.49969814      12.26250349
C       -0.35872332      -2.55092286      10.46605785
C        1.32719164      -1.96825512       9.73458015
C        1.18633155      -2.08215132       8.53607665
C        4.79981753       0.17755598      13.22854259
C        2.10766634      -1.04718371      10.49899396
C        2.34468955      -0.00812709       9.83970271
C        2.17407334       0.53984350      13.09509049
C        2.06024651       1.15448142      16.33624947
C        2.09835579       1.25475380      14.87684730
C        1.26162174       2.15392090      14.18958098
C        1.25288513       2.22329133      12.79998714
C       -0.01068640       2.39285597      16.39290483
C        0.01635347       2.40825257      14.83666848
C       -1.16079548       2.02882177      14.17882912
C       -1.21334995       1.96198298      13.04296916
C       -2.02776941       1.17064786      16.27401954
C       -2.04089943       1.13099922      14.92414400
C       -2.38067807      -0.00549322      14.23064661
C       -2.45768235      -0.26248652      12.87501008
C       -2.00041163      -1.17985603      16.31662347
C       -2.01753183      -1.18383996      14.91903342
C       -1.18422523      -2.04053744      14.24966414
C       -1.21687667      -2.01389744      12.79180898
C       -0.05836251      -2.36522560      16.32913448
C       -0.03910314      -2.37819081      14.92905986
C        1.21516753      -2.04302403      14.30098882
C        1.00994092      -2.25427363      13.25194154
C        2.78799874      -0.69119410      15.81757099
C        2.05301833      -1.13187056      14.87108222
C        2.35578120       0.04064679      14.21022044
O       -3.24529313       1.43770406      12.03264465
H        1.28532326      -7.14044713       8.87461232
H       37.41917383      -2.21524636     -34.49098191
O        0.31976671       0.56937171      15.37260929
H        0.74543333       1.81392604      16.10299943
H        0.40782208       0.35818949      14.50232209
O        0.43507244       0.88516555       4.90926590
H        1.35635192      -0.56261865       4.11221636
H        3.27934407       2.55045983       4.90527687
O        1.38154859      -0.73358215      17.47137406
H        0.78012423       0.03751069      16.97646426
H       -2.88296629     -11.62194115      14.83305397
O        0.83184950       0.81520857      13.17720458
H       -0.44127711       1.35344854       9.42506643
H        0.59847893       0.26605566      11.50849203
O        0.51667038      -2.94545412      10.56721040
H        2.30829448      -2.67293074      13.73037268
H       -1.67002604      -0.21996110      10.54835718
O       -0.58694296       0.18790043       7.19248866
H        0.35590874       0.18363368       6.51472028
H       -0.86781159       1.09986408       7.20845471
O        0.41454557       0.82961381       0.83978092
H        0.75443178       0.65710420      -0.80303385
H       -0.63037630       0.05761573       2.29024250
120
Lattice="10.411913203182273 0.0 0.0 0.0 10.411913203182273 0.0 0.0 0.0 10.411913203182273" Properties=species:S:1:pos:R:3 ipi_comment="Step:          16  Bead:       0 positions{ase}  cell{ase}" pbc="T T T"
C        2.39920580       0.01743444       0.01850409
C        2.32416665       1.15912037       3.43196933
C        2.40450730       1.18666960       2.16456469
C        1.77902248       2.97359087       1.83040100
C        1.23639351       2.12614831      -0.10192832
C       -0.13406256       2.54989064       3.49575640
C       -0.11594612       2.54073162       2.25222740
C       -1.40530267       2.14627180       1.34315432
C       -1.26948231       2.03881034      -0.05033053
C       -2.03631004       1.18606836       3.52944413
C       -2.04316363       1.17616739       2.11575798
C       -2.40311526      -0.01663324       1.42621563
C       -2.28662092       0.04053337       0.02779034
C       -2.01888315      -1.19500012       3.55052294
C       -2.02582612      -1.16327855       2.15412577
C       -1.15565431      -2.00607623       1.38859528
C       -1.17482906      -1.92572507      -0.02184635
C       -0.00023664      -2.37170752       3.57191259
C        0.00609120      -2.35227295       2.16138613
C        1.13201394      -2.10290310       1.39328919
C        1.11800020      -1.98797409       0.00120608
C        2.09227132      -1.21653797       3.58664193
C        2.05219977      -1.17358053       2.13569992
C        2.49401174      -0.10856044       1.45009658
C        2.50981056      -0.05328212       4.18732337
C        2.01458078       1.18886402       7.86880335
C        2.34369368       1.09539574       6.64034313
C        1.17451016       2.51328595       6.07690128
C        1.18446474       2.18131095       4.00426551
C        0.04839552       2.35421341       7.94261010
C       -0.15798383       2.67974475       6.56033887
C       -1.21480567       2.13761816       5.69502847
C       -1.15573810       2.02657077       4.26586736
C       -2.20177585       1.23300262       8.00596788
C       -2.21914482       1.24279139       6.21990923
C       -2.46376249      -0.03273492       5.62661766
C       -2.35199712      -0.00317472       4.27899071
C       -1.97743751      -1.20919593       7.86221237
C       -2.02621829      -1.14846421       6.33291924
C       -1.23291952      -2.04821550       5.67917754
C       -1.21187306      -2.07733575       4.25913075
C       -0.00109468      -2.34736990       7.80085028
C       -0.03392854      -2.35101297       6.39874444
C        1.19179013      -2.06407495       5.69228159
C        1.19042341      -2.04691821       4.29774744
C        2.07651503      -1.15459319       7.81677943
C        1.99586312      -1.14880891       6.41290620
C        2.56023887      -0.08731064       5.83054861
C        2.32071012       0.00501686       8.40386553
C        2.24478982       1.16914110      12.04147127
C        2.07790729       1.12603738      10.64509207
C        1.05794811       2.23314312      10.40973524
C        0.92601642       1.87682897       8.78490404
C        0.83401205       3.09816186      11.88556378
C        1.78184279       5.37479500      12.44019057
C       -3.26518756       3.09188971       8.03411589