120
Lattice="4.199999942576283 0.0 0.0 3.1840816342493553e-16 5.19999992890397 0.0 1.0531962328670942e-15 1.0531962328670942e-15 17.199999764836207" Properties=species:S:1:pos:R:3 ipi_comment="Step:           0  Bead:       0 positions{ase}  cell{ase}" pbc="T T T"
C        2.34866097       0.00000000       0.00000000
C        2.03399997       1.17433098       3.54999995
C        2.03399997       1.17433098       2.12999997
C        1.17433098       2.03399997       1.41999998
C        1.17433098       2.03399997       0.00000000
C        0.00000000       2.34866097       3.54999995
C        0.00000000       2.34866097       2.12999997
C       -1.17433098       2.03399997       1.41999998
C       -1.17433098       2.03399997       0.00000000
C       -2.03399997       1.17433098       3.54999995
C       -2.03399997       1.17433098       2.12999997
C       -2.34866097       0.00000000       1.41999998
C       -2.34866097       0.00000000       0.00000000
C       -2.03399997      -1.17433098       3.54999995
C       -2.03399997      -1.17433098       2.12999997
C       -1.17433098      -2.03399997       1.41999998
C       -1.17433098      -2.03399997       0.00000000
C        0.00000000      -2.34866097       3.54999995
C        0.00000000      -2.34866097       2.12999997
C        1.17433098      -2.03399997       1.41999998
C        1.17433098      -2.03399997       0.00000000
C        2.03399997      -1.17433098       3.54999995
C        2.03399997      -1.17433098       2.12999997
C        2.34866097       0.00000000       1.41999998
C        2.34866097       0.00000000       4.25999994
C        2.03399997       1.17433098       7.80999989
C        2.03399997       1.17433098       6.38999991
C        1.17433098       2.03399997       5.67999992
C        1.17433098       2.03399997       4.25999994
C        0.00000000       2.34866097       7.80999989
C        0.00000000       2.34866097       6.38999991
C       -1.17433098       2.03399997       5.67999992
C       -1.17433098       2.03399997       4.25999994
C       -2.03399997       1.17433098       7.80999989
C       -2.03399997       1.17433098       6.38999991
C       -2.34866097       0.00000000       5.67999992
C       -2.34866097       0.00000000       4.25999994
C       -2.03399997      -1.17433098       7.80999989
C       -2.03399997      -1.17433098       6.38999991
C       -1.17433098      -2.03399997       5.67999992
C       -1.17433098      -2.03399997       4.25999994
C        0.00000000      -2.34866097       7.80999989
C        0.00000000      -2.34866097       6.38999991
C        1.17433098      -2.03399997       5.67999992
C        1.17433098      -2.03399997       4.25999994
C        2.03399997      -1.17433098       7.80999989
C        2.03399997      -1.17433098       6.38999991
C        2.34866097       0.00000000       5.67999992
C        2.34866097       0.00000000       8.51999988
C        2.03399997       1.17433098      12.06999983
C        2.03399997       1.17433098      10.64999985
C        1.17433098       2.03399997       9.93999986
C        1.17433098       2.03399997       8.51999988
C        0.00000000       2.34866097      12.06999983
C        0.00000000       2.34866097      10.64999985
C       -1.17433098       2.03399997       9.93999986
C       -1.17433098       2.03399997       8.51999988
C       -2.03399997       1.17433098      12.06999983
C       -2.03399997       1.17433098      10.64999985
C       -2.34866097       0.00000000       9.93999986
C       -2.34866097       0.00000000       8.51999988
C       -2.03399997      -1.17433098      12.06999983
C       -2.03399997      -1.17433098      10.64999985
C       -1.17433098      -2.03399997       9.93999986
C       -1.17433098      -2.03399997       8.51999988
C        0.00000000      -2.34866097      12.06999983
C        0.00000000      -2.34866097      10.64999985
C        1.17433098      -2.03399997       9.93999986
C        1.17433098      -2.03399997       8.51999988
C        2.03399997      -1.17433098      12.06999983
C        2.03399997      -1.17433098      10.64999985
C        2.34866097       0.00000000       9.93999986
C        2.34866097       0.00000000      12.77999983
C        2.03399997       1.17433098      16.32999978
C        2.03399997       1.17433098      14.90999980
C        1.17433098       2.03399997      14.19999981
C        1.17433098       2.03399997      12.77999983
C        0.00000000       2.34866097      16.32999978
C        0.00000000       2.34866097      14.90999980
C       -1.17433098       2.03399997      14.19999981
C       -1.17433098       2.03399997      12.77999983
C       -2.03399997       1.17433098      16.32999978
C       -2.03399997       1.17433098      14.90999980
C       -2.34866097       0.00000000      14.19999981
C       -2.34866097       0.00000000      12.77999983
C       -2.03399997      -1.17433098      16.32999978
C       -2.03399997      -1.17433098      14.90999980
C       -1.17433098      -2.03399997      14.19999981
C       -1.17433098      -2.03399997      12.77999983
C        0.00000000      -2.34866097      16.32999978
C        0.00000000      -2.34866097      14.90999980
C        1.17433098      -2.03399997      14.19999981
C        1.17433098      -2.03399997      12.77999983
C        2.03399997      -1.17433098      16.32999978
C        2.03399997      -1.17433098      14.90999980
C        2.34866097       0.00000000      14.19999981
O       -0.85299999       1.86899997      10.47899986
H       -1.17399998       0.96799999      10.23899986
H       -0.09500000       1.98499997       9.88999986
O        0.23800000       0.60599999      15.29799979
H        0.60099999       1.48099998      15.44499979
H        0.51699999       0.39899999      14.32199980
O        0.82099999       1.17499998       4.95799993
H        1.08399999       0.33400000       4.55199994
H        1.61899998       1.73999998       4.94799993
O        1.57399998      -1.01599999      16.87599877
H        0.76999999      -0.52299999      16.70999877
H        1.66999998      -1.63899998      16.15199978
O        0.90899999       0.90499999      12.80999982
H        0.51399999       1.53799998      12.21499983
H        1.11499998       0.11200000      12.28299983
O        1.47999998      -1.65099998      11.68799984
H        2.08999997      -2.09999997      11.07199985
H        0.59599999      -2.04399997      11.54099984
O       -0.91199999       0.18100000       7.01399990
H       -0.11200000       0.58999999       6.60299991
H       -1.54699998       0.82899999       6.82999991
O        0.67799999       1.32199998       1.09999998
H        1.10099998       0.79199999       0.45999999
H       -0.04400000       0.80599999       1.31499998
120
Lattice="4.199999942576283 0.0 0.0 3.1840816342493553e-16 5.19999992890397 0.0 1.0531962328670942e-15 1.0531962328670942e-15 17.199999764836207" Properties=species:S:1:pos:R:3 ipi_comment="Step:           4  Bead:       0 positions{ase}  cell{ase}" pbc="T T T"
C        2.35695107       0.01579917       0.00916382
C        2.04050107       1.17454858       3.52130853
C        2.08837169       1.17743252       2.19164255
C        1.22433722       2.11056977       1.46044183
C        1.19180270       2.05440316      -0.01818404
C       -0.00788771       2.35959411       3.55322253
C       -0.01613681       2.37131006       2.16915162
C       -1.20509936       2.04716378       1.40295201
C       -1.19490339       2.04059486      -0.01197690
C       -2.03175188       1.17744228       3.54276274
C       -2.03325211       1.17348588       2.12563341
C       -2.35541071      -0.00370062       1.42024353
C       -2.34280130       0.01116983       0.01260810
C       -2.02815546      -1.18065798       3.54860103
C       -2.03040047      -1.16916912       2.13621091
C       -1.16643480      -2.02242983       1.40877767
C       -1.18000951      -2.01628473      -0.00237239
C        0.00004122      -2.35475077       3.55578121
C        0.00403029      -2.34612327       2.13584253
C        1.15656915      -2.05040507       1.41011736
C        1.16634055      -2.03033822       0.00434523
C        2.04409911      -1.17586907       3.56601387
C        2.03944183      -1.17094416       2.13167591
C        2.36463799      -0.01260924       1.42879400
C        2.36065483       0.00288342       4.25185924
C        2.03605246       1.17775582       7.81700899
C        2.03442597       1.16066914       6.38798960
C        1.17747423       2.05379684       5.70453629
C        1.16718724       2.06013849       4.21243568
C        0.00049764       2.35038297       7.78170477
C       -0.00562517       2.35912811       6.38739579
C       -1.17038346       2.04585431       5.68329063
C       -1.17335837       2.03289995       4.25991439
C       -2.04053459       1.18064917       7.81687223
C       -2.06482609       1.17263408       6.35860974
C       -2.37017145      -0.00082199       5.66379415
C       -2.34803308       0.00206246       4.26915853
C       -2.01333971      -1.17743381       7.82684195
C       -2.02757391      -1.15807381       6.38518619
C       -1.18727264      -2.03524009       5.67666028
C       -1.18549217      -2.04407912       4.26219962
C       -0.05889587      -2.36594626       7.78153658
C       -0.01099034      -2.34787962       6.39710017
C        1.18467530      -2.04138408       5.68028149
C        1.18237227      -2.03565947       4.26991395
C        2.09010705      -1.12923931       7.84341824
C        2.02007292      -1.16158631       6.40193610
C        2.35321399       0.01222107       5.69332016
C        2.29992761      -0.03826180       8.50084474
C        1.98106080       1.23104728      12.18171189
C        2.01414117       1.27940676      10.62163798
C        1.22612040       2.08134428       9.93999485
C        1.15653112       1.99972434       8.51592337
C       -0.02991921       2.38751157      12.12895108
C        0.36308537       2.48859702      10.65699560
C       -1.74078664       2.38582045       8.95935080
C       -1.15528841       2.05560759       8.49784269
C       -2.01368882       1.13951563      12.12823153
C       -2.12192368       1.12165408      10.68232240
C       -2.37936497      -0.03417753       9.95594580
C       -2.34725318      -0.02369044       8.52762327
C       -2.04458128      -1.14572502      12.07131309
C       -2.01330790      -1.15372494      10.64938610
C       -1.15746047      -2.11305127       9.93709862
C       -1.15387132      -2.00551104       8.48008018
C       -0.77131495      -2.58588529      12.22822997
C       -0.29324377      -2.43806755      10.38562534
C        0.85224310      -2.24546073       8.98835159
C        1.15062571      -2.06829881       8.61279744
C        5.03384898       2.72759406      15.97950211
C        2.48435022      -0.89674270       9.38742317
C        2.41683663       0.22199956       9.82074978
C        2.76300566       0.35595758      13.09302590
C        2.03732679       1.17387622      16.33326957
C        2.04769284       1.19548566      14.83787821
C        1.18765709       2.06698045      14.24011829
C        1.23430387       2.05935850      12.73470017
C        0.00319803       2.35716113      16.34194651
C        0.02258637       2.34992569      14.87970837
C       -1.16053756       2.01935358      14.17988962
C       -1.12640026       2.02398425      12.80158821
C       -2.03271150       1.17687778      16.30615395
C       -2.03945761       1.15710247      14.91115168
C       -2.33893451      -0.00738931      14.19830860
C       -2.33719726      -0.00180499      12.78250896
C       -2.02429259      -1.17779899      16.31927010
C       -2.02159275      -1.17232213      14.90315149
C       -1.17412134      -2.00452502      14.27618435
C       -1.33085077      -2.13119865      12.78799037
C       -0.00676513      -2.34793200      16.31596957
C        0.00998188      -2.38149328      14.89802128
C        1.22261913      -1.94710174      14.34886552
C        0.51557986      -2.57137762      14.02023787
C        2.19034553      -1.21644919      16.18328960
C        2.07900923      -1.15896770      14.87889158
C        2.34131262      -0.00753076      14.23346636
O       -0.69493467       1.34873007      11.18381412
H       -0.23163183       1.18730940      10.59398973
H       -0.16496570       3.29986150       8.71942764
O        0.22701429       0.55053571      15.25840165
H        0.53416680       1.50876567      15.34092650
H        0.40192034       0.55423030      14.48609262
O        0.77132089       1.13852403       4.95841526
H        1.14654843       0.28815055       4.51465501
H        2.03961517       1.66321723       4.97457529
O        1.48227714      -1.00421638      16.96020541
H        0.73095687      -0.50550135      16.72866202
H        0.88462634      -1.77086171      16.29666897
O        0.72825924       1.01709239      12.85258009
H        0.04981164       1.12400784      12.45596382
H        1.25239688      -1.28269816      10.95007501
O        0.57559925      -2.63853720      13.75559151
H       76.11927624     -31.05624631     -74.43336951
H      -78.21891057      -0.77903969      26.12927144
O       -0.87085025       0.15956067       7.02669587
H       -0.10785166       0.54642905       6.60206241
H       -1.46507593       0.86341655       7.24184647
O        0.62341693       1.22254573       1.03329661
H        0.97961770       0.79921554       0.43991893
H        0.01430202       0.84498529       1.35911825
120
Lattice="4.199999942576283 0.0 0.0 3.1840816342493553e-16 5.19999992890397 0.0 1.0531962328670942e-15 1.0531962328670942e-15 17.199999764836207" Properties=species:S:1:pos:R:3 ipi_comment="Step:           8  Bead:       0 positions{ase}  cell{ase}" pbc="T T T"
C        2.36320190       0.02931222       0.01711826
C        2.06862623       1.17711952       3.47582293
C        2.16152310       1.18341764       2.25640611
C        1.30961482       2.24153784       1.53156147
C        1.21317744       2.08723331      -0.04975566
C       -0.02325239       2.38044050       3.55120567
C       -0.04059294       2.42237243       2.21893500
C       -1.24673044       2.06735736       1.38600088
C       -1.21661117       2.04410537      -0.02551624
C       -2.02920209       1.18182763       3.53720032
C       -2.03522244       1.17377749       2.12296562
C       -2.36510078      -0.00722014       1.42095941
C       -2.33123582       0.02136952       0.02258577
C       -2.02316260      -1.18716339       3.54668858
C       -2.02859110      -1.16527928       2.14352430
C       -1.16080095      -2.01387958       1.39926929
C       -1.18182085      -1.99217617      -0.00681844
C        0.00084475      -2.36071872       3.56280402
C        0.00673389      -2.34685146       2.14323513
C        1.14303644      -2.06758811       1.40142682
C        1.15458385      -2.02177373       0.00642288
C        2.05588271      -1.18004201       3.57958495
C        2.04641454      -1.16869469       2.13400650
C        2.38399026      -0.02846139       1.43702528
C        2.37809290       0.00091515       4.23998700
C        2.03081550       1.18349282       7.83912819
C        2.05981686       1.14390923       6.39741038
C        1.18466995       2.08690838       5.75885313
C        1.16168479       2.10709442       4.13644220
C        0.01073674       2.35560321       7.76276422
C       -0.01625599       2.38467993       6.38502092
C       -1.16518250       2.06634009       5.67781650
C       -1.17404650       2.03060179       4.25922340
C       -2.08477256       1.18541312       7.84676812
C       -2.11909047       1.18303168       6.30283795
C       -2.40010354      -0.00784256       5.64144713
C       -2.34953218       0.00386026       4.27481624
C       -1.99221608      -1.20187900       7.90374067
C       -2.03054264      -1.15760790       6.36551089
C       -1.20017512      -2.04261728       5.68544047
C       -1.19542571      -2.05682972       4.26425737
C       -0.01661550      -2.38219498       7.90382334
C        0.00213418      -2.32623079       6.41768958
C        1.19624052      -2.05098527       5.67366521
C        1.18687626      -2.03968739       4.27519994
C        2.29140900      -0.94113979       7.79838156
C        1.81543837      -1.02764827       6.17459706
C        2.36627574       0.01560482       5.72696862
C        2.15717493       0.05255869       8.44370225
C        2.08634843       1.54673244      12.10855899
C        2.01170367       1.60416224      10.56176531
C        1.30179803       2.14822393       9.90020946
C        1.14494918       1.95234686       8.51120612
C       -0.11319416       2.72484151      12.11345389
C        0.80065752       2.71809890      10.65779243
C       -2.46759694       2.82335409       8.17803585
C       -0.96892119       2.01800386       8.31134087
C       -2.18506057       1.10220698      12.23221304
C       -2.28415144       1.06205102      10.66997560
C       -2.43933784      -0.07243221       9.93554491
C       -2.34904142      -0.07964392       8.55975283
C       -2.02361074      -0.88581934      12.07505660
C       -2.10759125      -1.00333833      10.53816531
C       -1.69217870      -2.08314576       9.86983514
C       -1.09340212      -1.91895122       8.30597843
C       12.91345770      -5.28325846      23.68483705
C       -0.51088357      -2.52975613       8.71777560
C       -5.62386677      -5.55091750      15.10622502
C        6.59952276       0.39463644       1.58692626
C       10.96770901      10.48057936      23.73679484
C        3.53156162      -0.34475997       6.99333829
C        2.61116519       0.71506129       9.48450382
C        3.82764964       1.38374891      13.76370574
C        2.16136238       1.19150932      16.30378987
C        2.21115592       1.27617607      15.01592649
C        1.29714186       2.38536386      14.08383017
C        1.34760853       2.26338834      12.80192663
C       -0.05430144       2.48201461      16.44706141
C       -0.02932245       2.59572734      14.92452157
C       -1.28821236       2.16512811      14.05405890
C       -1.23483752       2.20153421      12.98077035
C       -2.04001799       1.19294554      16.29204712
C       -2.21241958       1.19390230      14.92641778
C       -2.68867171       0.33333168      14.12538232
C       -2.57429365       0.17437860      12.74088216
C       -2.08990521      -1.07812408      16.45716691
C       -0.55750656      -1.12173264      14.85596537
C       -3.70558173      -3.99548967       3.78125871
C        6.55179211      -5.68353024      14.03763735
C       -3.25477398      -1.66038336      25.90680709
C       17.64691561      -8.39813673      -6.21668603
C       -0.24787170      -0.01167280      17.39614619
C       21.25956639      43.25359726     312.83700867
C        2.49615415      -1.13722254      15.94664212
C        3.92453595      -2.02936141      11.41642266
C        2.58709288      -0.23531443      14.61861184
O       -0.71825113       0.94088492      11.58361024
H        1.25880532       1.15307398       9.82429554
H        0.33194805       5.06898162       6.72907678
O        0.33191842      -0.15221098      15.40368906
H        0.47341310       2.08652146      17.78995121
H       -0.97970725       3.14808506      14.29128280
O        0.66340303       1.07044612       4.96159604
H        1.21113109       0.07861388       4.48009728
H        2.90051801       1.74557706       5.01384037
O        1.03671819      -1.30926279      16.27956232
H        1.25387289       1.11070859      19.68422884
H       -1.79915733      -1.48089830      37.83915759
O        0.62793963       1.27333104      13.03338512
H       -3.11762086       2.09102541      10.40105055
H        0.11302823      -7.88117926      13.33289924
O      -44.44671858     -32.87389652    -197.38181373
H      223.58925273     -89.34673876    -244.89712018
H     -235.30870440       1.05531728      54.59169997
O       -0.77226416       0.12893738       7.03502915
H       -0.01638472       0.42794898       6.67306509
H       -1.10185107       0.84244103       7.66885173
O        0.55859646       1.09209771       0.94281783
H        1.00523160       0.49701543       0.04388684
H       -0.39947795       0.51633539       1.61519834
120
Lattice="4.199999942576283 0.0 0.0 3.1840816342493553e-16 5.19999992890397 0.0 1.0531962328670942e-15 1.0531962328670942e-15 17.199999764836207" Properties=species:S:1:pos:R:3 ipi_comment="Step:          12  Bead:       0 positions{ase}  cell{ase}" pbc="T T T"
C        2.36483062       0.04110953       0.02416126
C        2.10953042       1.18581195       3.44850770
C        2.23681984       1.19441732       2.29202794
C        1.38927356       2.36565879       1.59542025
C        1.23276834       2.12085319      -0.06977319
C       -0.04639269       2.40991815       3.54430201
C       -0.06373054       2.48594039       2.26028422
C       -1.28687856       2.09477501       1.37164939
C       -1.23922678       2.04365666      -0.04007258
C       -2.02637546       1.18742525       3.53496974
C       -2.04013487       1.17586257       2.12018086
C       -2.37986584      -0.01152699       1.42389470
C       -2.31392901       0.03054559       0.02682179
C       -2.01885258      -1.19289491       3.54529070
C       -2.02829607      -1.16428452       2.15050522
C       -1.15732122      -2.00790565       1.39183565
C       -1.18013741      -1.96222622      -0.01311489
C        0.00224163      -2.36627471       3.56997143
C        0.00710273      -2.35088379       2.15129479
C        1.13503786      -2.08462798       1.39477484
C        1.13886963      -2.00830110       0.00550389
C        2.07164089      -1.18861745       3.59038620
C        2.05398976      -1.16810281       2.13549645
C        2.40444812      -0.04200755       1.44424222
C        2.39520078      -0.00116994       4.23058463
C        2.01866726       1.20806865       7.84974176
C        2.09928526       1.14121302       6.41535621
C        1.19827497       2.11812906       5.80258449
C        1.16577953       2.15316729       4.07112102
C        0.05663626       2.37990130       7.73629010
C       -0.03102571       2.42851489       6.38104684
C       -1.16781799       2.08897802       5.66800004
C       -1.18013689       2.02893786       4.25825528
C       -2.17006191       1.20646652       7.88819086
C       -2.18637251       1.21016142       6.24393523
C       -2.43979743      -0.01961512       5.61531600
C       -2.35321865       0.00379159       4.27570411
C       -2.01763299      -1.21011952       7.96538944
C       -2.04219459      -1.16462576       6.33823962
C       -1.20920230      -2.05037724       5.69420467
C       -1.20415818      -2.07017899       4.26622719
C        0.45073596      -2.16985815       7.83069848
C        0.01312148      -2.30672258       6.44185315
C        1.19762501      -2.06377683       5.66314727
C        1.18841501      -2.04785673       4.27710083
C        2.46114520      -0.81124185       7.71511654
C        1.55018601      -0.87061119       5.91341147
C        2.40237159       0.02524831       5.75264377
C        1.98440043       0.18523431       8.41562881
C        2.22477556       1.83722209      12.01153663
C        2.06190904       1.88426753      10.55119664
C        1.36122217       2.22598138       9.76882649
C        1.13417570       1.91598043       8.50050810
C       -0.18061390       3.05690813      12.08809766
C        1.18430757       2.99389175      10.72160401
C       -3.19597178       3.25366105       7.41372269
C       -0.81691003       1.98099449       8.14888444
C       -2.32483068       1.12692915      12.30235833
C       -2.44077672       0.94557866      10.64152955
C       -2.51562697      -0.06832349       9.89534060
C       -2.36247961      -0.12814520       8.58702741
C       -2.00259258      -0.63969034      12.06864820
C       -2.17480213      -0.88902327      10.47340540
C       -2.68793277      -1.89835425       9.95446147
C       -1.07485017      -1.78470996       8.10608841
C       26.46184295      -7.95294178      35.02724019
C       -0.60335793      -3.08202606       7.13825794
C      -12.04533891      -8.83881452      21.17594399
C       12.05387602       2.79867130      -5.31363755
C       16.84251538      18.15640708      31.41688713
C        4.62563108       0.18626659       4.63600652
C        2.85207541       1.19710843       9.17062247
C        4.86896745       2.39667051      14.43054879
C        2.28363264       1.20753146      16.28902617
C        2.37830715       1.35981971      15.16750404
C        1.40500489       2.70273508      13.97233110
C        1.44060120       2.49657991      12.85977613
C       -0.12823983       2.61995607      16.53249644
C       -0.05999886       2.84218044      14.99162685
C       -1.44998578       2.28781409      14.02615453
C       -1.35600399       2.39173361      13.05223659
C       -2.04162045       1.20178385      16.28601005
C       -2.37901995       1.24017368      14.94185004
C       -3.04153361       0.65743945      14.05285132
C       -2.83420714       0.29422486      12.73137386
C       -2.14553815      -0.96956376      16.58632315
C        0.88097097      -1.09734034      14.76601676
C       -6.21152334      -5.96905457      -6.60891086
C       14.35614562      -9.19902369      15.27361449
C       -6.47049265      -0.97965723      35.40220171
C       35.10836535     -14.35498180     -27.12120654
C       -1.71221120       1.90993751      20.39847401
C       41.79710914      88.62252282     608.67996045
C        2.79825751      -1.05800225      15.70632569
C        5.75063710      -2.89232564       7.99020484
C        2.83047096      -0.45215582      14.99949162
O       -0.74056868       0.52845434      11.95986433
H        2.27425995       0.99183841       8.98684232
H        0.82600340       6.81821397       4.75521151
O        0.42940822      -0.81142112      15.57225207
H        0.55650027       2.44393041      20.25885757
H       -2.13624749       5.90293150      14.14287120
O        0.53796596       0.99303191       4.96683973
H        1.26831372      -0.19234227       4.40671040
H        3.81844185       1.85673649       5.06649584
O        0.60878323      -1.63102710      15.62754870
H        1.77208026       2.71294676      22.59486996
H       -4.45631348      -1.19385776      59.16705006
O        0.52958972       1.50974056      13.22084122
H       -6.30785175       3.89173709       8.67051299
H       -1.00833469     -14.41412560      15.71305962
O      -89.02097513     -62.80835411    -406.41798337
H      369.59161072    -147.05712530    -413.66441873
H     -390.83514347       2.87141876      82.77087094
O       -0.63464280       0.07696354       7.03609083
H        0.22293621       0.22912478       6.72253089
H       -0.49571560       0.77023338       8.10003620
O        0.49487573       0.95725655       0.84757012
H        1.08846752       0.11414674      -0.39146179
H       -0.79262656       0.16427045       1.87685891
120
Lattice="4.199999942576283 0.0 0.0 3.1840816342493553e-16 5.19999992890397 0.0 1.0531962328670942e-15 1.0531962328670942e-15 17.199999764836207" Properties=species:S:1:pos:R:3 ipi_comment="Step:          16  Bead:       0 positions{ase}  cell{ase}" pbc="T T T"
C        2.35631262       0.05195578       0.02883776
C        2.15183128       1.19944213       3.45940701
C        2.31149409       1.21423863       2.28153822
C        1.46045737       2.47822310       1.64751538
C        1.24963509       2.14963134      -0.07233343
C       -0.07282739       2.44460407       3.54185539
C       -0.08109976       2.55281923       2.27754985
C       -1.32043377       2.12790924       1.35948037
C       -1.26082091       2.03765548      -0.05256163
C       -2.02456029       1.19365976       3.53705056
C       -2.04407204       1.17986646       2.11522566
C       -2.40111224      -0.01598283       1.43031174
C       -2.29009077       0.03890542       0.02455728
C       -2.01573427      -1.19773288       3.54704369
C       -2.02875024      -1.16757451       2.15488184
C       -1.15546889      -2.00586622       1.38625994
C       -1.17515812      -1.92666238      -0.02087337
C        0.00322900      -2.37108562       3.57693991
C        0.00428783      -2.35823521       2.15894862
C        1.13332023      -2.10108405       1.38988755
C        1.11886508      -1.99030268       0.00187053
C        2.09396047      -1.20354189       3.59612958
C        2.06189663      -1.17024485       2.13574666
C        2.42531190      -0.05135237       1.44812008
C        2.41285899      -0.00209286       4.22294698
C        1.99105704       1.25762092       7.82593542
C        2.14520801       1.15726031       6.43429637
C        1.21565141       2.14750632       5.82722569
C        1.18014676       2.19507159       4.02538373
C        0.16965725       2.44866355       7.68419754
C       -0.04606068       2.48206282       6.36658540
C       -1.18017549       2.10605982       5.65666483
C       -1.19026760       2.02784815       4.25708714
C       -2.25692305       1.23946583       7.92690592
C       -2.25048961       1.24606734       6.19434983
C       -2.48090746      -0.02981848       5.59324673
C       -2.35820284       0.00048926       4.26771686
C       -2.09810584      -1.20054736       8.00977786
C       -2.06147869      -1.17407183       6.30969118
C       -1.21996766      -2.05917298       5.70157000
C       -1.21081826      -2.08362610       4.26685369
C        1.16958028      -1.78478588       7.71626791
C        0.03852307      -2.28229486       6.45610808
C        1.19262251      -2.08291100       5.65027560
C        1.18769812      -2.06517541       4.27147602
C        2.62096911      -0.69953288       7.62473928
C        1.28244025      -0.72549342       5.68060980
C        2.46176120       0.04614618       5.76750014
C        1.81459992       0.28537886       8.38879032
C        2.37459248       2.11708376      11.90270769
C        2.16472494       2.11989310      10.58384749