99
Lattice="4.199999942576283 0.0 0.0 3.1840816342493553e-16 5.19999992890397 0.0 1.0531962328670942e-15 1.0531962328670942e-15 17.199999764836207" Properties=species:S:1:pos:R:3 ipi_comment="Step:           0  Bead:       0 positions{ase}  cell{ase}" pbc="T T T"
C        1.20033998       0.18349400       0.21001500
C        1.93193797       1.42298298       3.51598795
C        1.89663597       1.37999498       2.15428797
C        0.84587699       2.11195197       1.53216098
C        0.43622699       1.38947698       0.19120900
C       -0.26625400       2.50372597       3.62714495
C       -0.26281100       2.53852397       2.17515697
C       -1.40722298       1.92885997       1.52564198
C       -1.00854099       1.30746198       0.28280800
C       -2.34240997       1.24123198       3.66072495
C       -2.29059497       1.14365098       2.23943897
C       -2.42312697      -0.10986000       1.48948998
C       -1.61009398       0.00915900       0.29943600
C       -2.16408297      -1.24509098       3.65474595
C       -2.21318897      -1.33742198       2.14199597
C       -1.16914498      -1.95747097       1.43465798
C       -0.82300799      -1.14216798       0.20527800
C        0.02356000      -2.41637197       3.50521895
C        0.06237100      -2.36891697       2.10352597
C        1.07163699      -1.89000397       1.34318598
C        0.56304399      -1.09233399       0.14165700
C        2.12295697      -1.04885599       3.53307095
C        2.09941597      -1.05149999       2.07355497
C        2.11467097       0.21394900       1.39128298
C        2.28461797       0.18893700       4.23305394
C        2.04595197       1.30794398       7.77085089
C        2.07342497       1.41788898       6.38149591
C        1.04507499       2.19588597       5.71325092
C        0.98090999       2.17851097       4.25585894
C       -0.12506800       2.44780097       7.88145289
C       -0.18338500       2.55172297       6.45486491
C       -1.43569498       2.14283097       5.80237292
C       -1.49862798       2.12467197       4.36268094
C       -2.13872697       1.06765399       7.92227989
C       -2.20803797       1.11048898       6.52084991
C       -2.53973897      -0.14216200       5.79097592
C       -2.53932197      -0.06858700       4.35866394
C       -2.00848697      -1.34367998       7.92501189
C       -2.12268797      -1.36958498       6.51789991
C       -1.11872498      -2.10463797       5.76409992
C       -1.12098198      -2.00208497       4.26438494
C        0.16034700      -2.48823997       7.77859089
C        0.11237700      -2.50210597       6.43301691
C        1.30651598      -2.05375997       5.68436592
C        1.23357498      -1.99473897       4.22281894
C        2.17293497      -1.09952898       7.81503289
C        2.24477597      -1.10964798       6.40308491
C        2.38387097       0.16760300       5.69048492
C        2.48788497       0.10396500       8.42444188
C        2.14621997       1.30808398      11.95835284
C        2.08353097       1.30279298      10.53482586
C        1.12901998       2.19884597       9.90742086
C        1.10890698       2.11015897       8.48989388
C       -0.00160200       2.39611097      12.07620383
C       -0.09810100       2.43124097      10.62949885
C       -1.37764898       2.18213497      10.00535186
C       -1.33962298       2.04082197       8.59621788
C       -2.00963497       1.02119199      12.08592083
C       -2.23753197       1.16009498      10.64423085
C       -2.48731797      -0.10457200       9.96927086
C       -2.42705497      -0.17124200       8.59277288
C       -1.95372897      -1.43639998      12.07428883
C       -2.04284897      -1.37118598      10.64737985
C       -1.07070099      -2.27105797       9.92214786
C       -1.06435199      -2.20771097       8.53029288
C        0.20651700      -2.50120497      12.02154784
C        0.19782700      -2.47475197      10.60104186
C        1.42637598      -2.09826697       9.85006287
C        1.38872298      -2.11502597       8.47026688
C        2.27750097      -1.15215798      11.98930884
C        2.24680597      -1.14169298      10.50301586
C        2.48985397       0.10898100       9.80997787
C        2.58914596       0.10264500      12.73793383
C        1.37862298       0.66741199      16.08350878
C        2.05850997       1.20655598      14.89303080
C        1.26752998       2.16914597      14.16584081
C        1.26612998       2.17362397      12.73539983
C        0.08217000       1.29868398      16.04770878
C        0.02535200       2.24570697      14.89203580
C       -1.20580598       2.00415997      14.16557481
C       -1.20892398       2.00721197      12.75834583
C       -1.05520599       0.53220299      16.07520678
C       -1.86213497       0.97942999      14.84527280
C       -2.29730797      -0.17271900      14.18120381
C       -2.32878397      -0.22084000      12.80098282
C       -1.01920899      -0.85426599      16.08235378
C       -1.75575598      -1.32699098      14.88934080
C       -0.99204899      -2.29749297      14.19241681
C       -1.04958499      -2.37847697      12.76244083
C        0.23768900      -1.48254998      16.12987478
C        0.26944000      -2.36694797      14.86273580
C        1.50179898      -2.15792097      14.14093781
C        1.43632498      -2.11276997      12.67541083
C        1.41184198      -0.71101899      16.07959878
C        2.14501097      -1.07537399      14.79404480
C        2.63309296       0.11378100      14.13591881
O       -0.31200000       0.78099999       7.24399990
H        0.48799999       1.18999998       6.83299991
H       -0.94699999       1.42899998       7.05999990
99
Lattice="4.199999942576283 0.0 0.0 3.1840816342493553e-16 5.19999992890397 0.0 1.0531962328670942e-15 1.0531962328670942e-15 17.199999764836207" Properties=species:S:1:pos:R:3 ipi_comment="Step:           4  Bead:       0 positions{ase}  cell{ase}" pbc="T T T"
C        1.20409520       0.20383345       0.21897329
C        1.92742717       1.41995477       3.50301424
C        1.90786919       1.38444321       2.17539588
C        0.83483568       2.10135808       1.53316305
C        0.44204473       1.38803753       0.19385118
C       -0.26968334       2.50923387       3.62729011
C       -0.26597280       2.52822079       2.18499667
C       -1.40626121       1.93856102       1.51148175
C       -1.02331032       1.31265460       0.26978285
C       -2.33953241       1.24208277       3.65355294
C       -2.29116227       1.14085093       2.23529269
C       -2.43196205      -0.11110083       1.49190717
C       -1.60812292       0.02108651       0.31044177
C       -2.15727411      -1.25251680       3.65156543
C       -2.20763214      -1.33096470       2.14903010
C       -1.16175717      -1.94676379       1.42364748
C       -0.83132868      -1.12965111       0.20396982
C        0.02488264      -2.42147074       3.51431368
C        0.06246789      -2.36573115       2.10716813
C        1.05905547      -1.90314734       1.33367461
C        0.55861447      -1.09172781       0.14758640
C        2.13195659      -1.04841309       3.54847228
C        2.10115385      -1.04891622       2.07536000
C        2.11675240       0.21773058       1.40202155
C        2.29968405       0.18578724       4.22576323
C        2.05291656       1.30842644       7.76498881
C        2.06245526       1.40741351       6.37008424
C        1.04741357       2.19248954       5.69308653
C        0.96947474       2.17727204       4.25585754
C       -0.13335935       2.45056062       7.87431391
C       -0.18626919       2.56396660       6.44227746
C       -1.43589567       2.14969818       5.80629486
C       -1.50094083       2.12645554       4.36437776
C       -2.14271374       1.06694119       7.93435255
C       -2.21383360       1.09019681       6.51255030
C       -2.54900381      -0.13623315       5.78430680
C       -2.53837895      -0.06613031       4.36958390
C       -1.98913818      -1.34558541       7.92335590
C       -2.11333428      -1.35200131       6.51211868
C       -1.13161111      -2.10462506       5.76012273
C       -1.13319912      -2.01306334       4.26942897
C        0.15958131      -2.48986667       7.78260953
C        0.09744936      -2.50269390       6.43122489
C        1.31773417      -2.05945148       5.68239887
C        1.24291305      -1.99567174       4.23517233
C        2.18851753      -1.09705761       7.81794476
C        2.23200634      -1.09855223       6.40749933
C        2.38821191       0.17733487       5.69989614
C        2.48138962       0.11588404       8.39528565
C        2.14330228       1.29876600      11.95555511
C        2.08821377       1.29073469      10.53391657
C        1.11974332       2.20979075       9.90189588
C        1.09369539       2.09870854       8.49461783
C       -0.00482787       2.39847345      12.08100938
C       -0.09895253       2.43038447      10.62765072
C       -1.37551234       2.17592690      10.00516509
C       -1.34365103       2.06830242       8.60331764
C       -2.00259810       1.00714508      12.09008570
C       -2.24005016       1.15947961      10.63681495
C       -2.50550081      -0.10785245       9.97336959
C       -2.42870771      -0.17699295       8.60273133
C       -1.96341358      -1.43543685      12.07146459
C       -2.03650613      -1.38030243      10.65095580
C       -1.06951406      -2.27392178       9.93198865
C       -1.05087025      -2.20408895       8.52074611
C        0.21338928      -2.49402376      12.02482127
C        0.20769940      -2.48841166      10.60603754
C        1.42636221      -2.08672587       9.85462761
C        1.39168725      -2.12746757       8.48287596
C        2.28510035      -1.16204402      11.98888958
C        2.25579873      -1.15259628      10.51630194
C        2.48034446       0.11308485       9.80404095
C        2.59197095       0.10722145      12.72713069
C        1.37522835       0.66518460      16.08029535
C        2.04690533       1.23247607      14.89265791
C        1.27650505       2.18696982      14.15946513
C        1.27587329       2.17353562      12.73073465
C        0.08553392       1.30345092      16.05717552
C        0.04057052       2.24858676      14.88869288
C       -1.20986437       2.00559521      14.16497954
C       -1.19087959       2.01133086      12.74748186
C       -1.05801647       0.53933731      16.04997751
C       -1.86817338       0.96187482      14.85355785
C       -2.30609555      -0.17547535      14.19232017
C       -2.33837606      -0.22285492      12.80719496
C       -1.01501863      -0.86059917      16.07353822
C       -1.74863396      -1.33030413      14.89193430
C       -0.99154960      -2.29600411      14.21093230
C       -1.04857195      -2.35775472      12.76578013
C        0.22152155      -1.48908554      16.12265241
C        0.26866651      -2.37624892      14.86245744
C        1.51107302      -2.14704495      14.14398910
C        1.43509253      -2.12326693      12.68884240
C        1.42367219      -0.72799739      16.07020571
C        2.14164901      -1.08320408      14.78952128
C        2.62424344       0.11354397      14.12373408
O       -0.29854478       0.76926211       7.24784080
H        0.54897534       1.10891626       6.84284145
H       -0.95674959       1.34675819       7.04871541
99
Lattice="4.199999942576283 0.0 0.0 3.1840816342493553e-16 5.19999992890397 0.0 1.0531962328670942e-15 1.0531962328670942e-15 17.199999764836207" Properties=species:S:1:pos:R:3 ipi_comment="Step:           8  Bead:       0 positions{ase}  cell{ase}" pbc="T T T"
C        1.20705986       0.22284029       0.22761118
C        1.92451128       1.41373157       3.50127813
C        1.91625612       1.39110637       2.18627796
C        0.82869540       2.09210241       1.52714125
C        0.44770634       1.38694220       0.20123377
C       -0.27347240       2.51476689       3.62794953
C       -0.27297950       2.51682715       2.19808446
C       -1.40784432       1.95365432       1.49850120
C       -1.03392190       1.31662316       0.25611283
C       -2.33758321       1.23780863       3.64817716
C       -2.29307814       1.13783568       2.23160383
C       -2.44553137      -0.10819163       1.49734934
C       -1.60701899       0.03306198       0.31725162
C       -2.14997874      -1.26087830       3.64478800
C       -2.19914554      -1.32247481       2.15974114
C       -1.15786999      -1.94041424       1.41454321
C       -0.83957542      -1.12091691       0.20381696
C        0.02941170      -2.42473070       3.52837844
C        0.05452505      -2.36323190       2.10914426
C        1.05919634      -1.91064363       1.32489371
C        0.55767345      -1.08983648       0.15539596
C        2.13870924      -1.04987250       3.56000900
C        2.09842371      -1.04556873       2.07630104
C        2.12075579       0.21615634       1.41302641
C        2.31666359       0.18216558       4.22126638
C        2.06155340       1.31177746       7.76519559
C        2.05085751       1.39462702       6.35343253
C        1.05038262       2.19591517       5.66917307
C        0.95692159       2.17854721       4.25790099
C       -0.14095831       2.46093123       7.88011657
C       -0.18772224       2.58591442       6.41463954
C       -1.44283825       2.16112430       5.80177171
C       -1.50070622       2.13071082       4.36490874
C       -2.15752945       1.06767618       7.95695763
C       -2.22938385       1.07291319       6.49204891
C       -2.55755997      -0.12814319       5.77951276
C       -2.53802833      -0.06388060       4.37868074
C       -1.97076491      -1.34884246       7.91920966
C       -2.10025257      -1.33466726       6.49968483
C       -1.14503656      -2.10458964       5.75404139
C       -1.14709695      -2.02667555       4.27801919
C        0.15949834      -2.49118304       7.79276121
C        0.08479238      -2.49909725       6.42034041
C        1.32863983      -2.06304797       5.67969610
C        1.25357843      -1.99657065       4.24963784
C        2.20359104      -1.09928713       7.81582117
C        2.21406368      -1.08811118       6.40441855
C        2.39319822       0.18427260       5.70463380
C        2.47499194       0.12933978       8.37153577
C        2.14136343       1.28839153      11.95662915
C        2.09222681       1.27923777      10.53474406
C        1.11182902       2.21747213       9.89637265
C        1.08325417       2.09169581       8.50515682
C       -0.00772733       2.40164310      12.08186386
C       -0.09862445       2.43015614      10.62881019
C       -1.37371142       2.16619653      10.00417652
C       -1.35433108       2.10325942       8.61974722
C       -1.99916678       0.99504339      12.09068275
C       -2.23890721       1.15587510      10.63609885
C       -2.52021794      -0.11417417       9.98307353
C       -2.43142016      -0.18023142       8.61163976
C       -1.97355414      -1.43430469      12.06952533
C       -2.02787132      -1.38945343      10.65470114
C       -1.06781142      -2.27251320       9.94520597
C       -1.03782542      -2.20099717       8.51266834
C        0.22018489      -2.48791278      12.02900508
C        0.21581130      -2.50165962      10.60990052
C        1.42295978      -2.07666615       9.86451797
C        1.39454870      -2.13753147       8.49190277
C        2.29171147      -1.17042841      11.98778512
C        2.26550486      -1.16092690      10.53369428
C        2.47045022       0.11688578       9.80438958
C        2.59380899       0.11053367      12.71048563
C        1.36947875       0.66746854      16.07620272
C        2.04215086       1.25581936      14.88842755
C        1.28409812       2.20155621      14.15616885
C        1.28446243       2.17397310      12.72415267
C        0.09037717       1.31046530      16.06729269
C        0.05348685       2.25318115      14.88381311
C       -1.21045463       2.00615657      14.16723785
C       -1.17480439       2.01450141      12.73831668
C       -1.06335223       0.54879110      16.02568210
C       -1.87587126       0.94683294      14.86330020
C       -2.31364131      -0.18223833      14.20483533
C       -2.34743160      -0.22362910      12.80833536
C       -1.01167457      -0.86632857      16.06583686
C       -1.74621110      -1.33464412      14.89424791
C       -0.98915825      -2.29367760      14.22717875
C       -1.04684764      -2.33462380      12.76680881
C        0.20875366      -1.49877970      16.11163999
C        0.26899898      -2.38790801      14.86346203
C        1.51579591      -2.13459525      14.14609428
C        1.43616366      -2.13262316      12.70244771
C        1.43624191      -0.74538393      16.05891082
C        2.14274948      -1.09104889      14.78686603
C        2.61175122       0.11251224      14.11405263
O       -0.26717465       0.74002244       7.25661961
H        0.63019445       0.89615528       6.79373311
H       -1.00616776       1.13535052       6.92125394
99
Lattice="4.199999942576283 0.0 0.0 3.1840816342493553e-16 5.19999992890397 0.0 1.0531962328670942e-15 1.0531962328670942e-15 17.199999764836207" Properties=species:S:1:pos:R:3 ipi_comment="Step:          12  Bead:       0 positions{ase}  cell{ase}" pbc="T T T"
C        1.20948570       0.23801432       0.23557014
C        1.92306952       1.40455760       3.51225154
C        1.92142823       1.39963681       2.18476815
C        0.82731844       2.08511448       1.51571057
C        0.45271900       1.38694391       0.21333683
C       -0.27809045       2.52024795       3.62941837
C       -0.28297584       2.50426847       2.21194553
C       -1.41314489       1.97302124       1.48774940
C       -1.03997092       1.32008267       0.24259746
C       -2.33659285       1.22859969       3.64501669
C       -2.29603833       1.13545198       2.22851107
C       -2.46303553      -0.10075531       1.50539483
C       -1.60728061       0.04428072       0.31946428
C       -2.14293696      -1.26915764       3.63547123
C       -2.18790973      -1.31228610       2.17308777
C       -1.15828931      -1.93853388       1.40856827
C       -0.84659287      -1.11607606       0.20487322
C        0.03668251      -2.42598102       3.54612512
C        0.03967585      -2.36118823       2.10982305
C        1.07145088      -1.91214245       1.31762444
C        0.56014133      -1.08594516       0.16451234
C        2.14341717      -1.05313589       3.56673737
C        2.09140036      -1.04172982       2.07681517
C        2.12655479       0.20961918       1.42410681
C        2.33492497       0.17855799       4.21999209
C        2.07117204       1.31949212       7.77056714
C        2.03868845       1.38116155       6.33325313
C        1.05142387       2.20629518       5.64401805
C        0.94474129       2.18189938       4.26060323
C       -0.14820167       2.47260489       7.89186429
C       -0.18817243       2.61103298       6.37826137
C       -1.45510654       2.17642355       5.79071555
C       -1.49828775       2.13680617       4.36350336
C       -2.18059911       1.07084284       7.98612262
C       -2.25220344       1.06224904       6.46568815
C       -2.56577288      -0.11944410       5.77636978
C       -2.53798035      -0.06224990       4.38345136
C       -1.95440530      -1.35231871       7.91214820
C       -2.08410376      -1.31870719       6.48249602
C       -1.15807470      -2.10482104       5.74663485
C       -1.16145925      -2.04280893       4.28876771
C        0.16077632      -2.49235019       7.80626115
C        0.07540485      -2.49156984       6.40283437
C        1.33800823      -2.06463873       5.67732750
C        1.26483478      -1.99769384       4.26483693
C        2.21738351      -1.10620280       7.80851711
C        2.19199287      -1.07920037       6.39463870
C        2.39949877       0.18696395       5.70305397
C        2.46910755       0.14232234       8.35634952
C        2.14030259       1.27771079      11.96094823
C        2.09486895       1.26898015      10.53647781
C        1.10614086       2.22131766       9.89207419
C        1.07642961       2.08925782       8.51835553
C       -0.00883190       2.40562070      12.07824767
C       -0.09714757       2.43049292      10.63290821
C       -1.37234827       2.15343538      10.00359966
C       -1.37015268       2.14068048       8.63748695
C       -1.99906666       0.98574218      12.08762468
C       -2.23443847       1.14851589      10.64276698
C       -2.53095240      -0.12356828       9.99788439
C       -2.43418604      -0.18087107       8.61888902
C       -1.98348304      -1.43339702      12.06948942
C       -2.01759507      -1.39802524      10.65823640
C       -1.06511531      -2.26708251       9.96030052
C       -1.02595037      -2.19853155       8.50789946
C        0.22618608      -2.48300310      12.03459076
C        0.22155465      -2.51387372      10.61297772
C        1.41636533      -2.06884710       9.87906199
C        1.39788175      -2.14439782       8.49692813
C        2.29738941      -1.17712575      11.98659845
C        2.27574039      -1.16612283      10.55337417
C        2.46052011       0.12006255       9.81031788
C        2.59474199       0.11162955      12.69013365
C        1.36195231       0.67309697      16.07087346
C        2.04544660       1.27357486      14.88066490
C        1.29004540       2.21301797      14.15566092
C        1.29153368       2.17525052      12.71590706
C        0.09614407       1.31947993      16.07698513
C        0.06171515       2.25946707      14.87752462
C       -1.20699251       2.00592689      14.17159378
C       -1.16255785       2.01567894      12.73286901
C       -1.07001320       0.55907436      16.00443269
C       -1.88396983       0.93689208      14.87347037
C       -2.32038460      -0.19357675      14.21687078
C       -2.35588511      -0.22296504      12.80510945
C       -1.00977302      -0.87033694      16.06000146
C       -1.74916260      -1.33988815      14.89660298
C       -0.98508722      -2.29139232      14.23841660
C       -1.04409763      -2.31000358      12.76613153
C        0.20165905      -1.51120033      16.09754824
C        0.27034354      -2.40156787      14.86620020
C        1.51501081      -2.12281135      14.14652954
C        1.44003355      -2.14021443      12.71511764
C        1.44823395      -0.76113107      16.04669833
C        2.14891526      -1.09668866      14.78643317
C        2.59587687       0.11157862      14.10676401
O       -0.21793865       0.69930390       7.27135235
H        0.65937164       0.59264457       6.73183554
H       -1.08511588       0.85151700       6.68697176
99
Lattice="4.199999942576283 0.0 0.0 3.1840816342493553e-16 5.19999992890397 0.0 1.0531962328670942e-15 1.0531962328670942e-15 17.199999764836207" Properties=species:S:1:pos:R:3 ipi_comment="Step:          16  Bead:       0 positions{ase}  cell{ase}" pbc="T T T"
C        1.21182137       0.24707040       0.24237039
C        1.92281398       1.39293593       3.53291720
C        1.92342898       1.40925969       2.17315214
C        0.82995035       2.08145852       1.50131497
C        0.45652239       1.38844503       0.22942675
C       -0.28420582       2.52563699       3.63162681
C       -0.29473933       2.49056841       2.22386389
C       -1.42267561       1.99536244       1.47998089
C       -1.04146947       1.32366829       0.23021237
C       -2.33633063       1.21512251       3.64455960
C       -2.29988181       1.13437645       2.22615957
C       -2.48305499      -0.08906899       1.51511622
C       -1.60919651       0.05382368       0.31727132
C       -2.13683415      -1.27641551       3.62519569
C       -2.17461784      -1.30056284       2.18770427
C       -1.16298639      -1.94089343       1.40649644
C       -0.85150648      -1.11477698       0.20722337
C        0.04576371      -2.42524332       3.56564779
C        0.02049851      -2.35907733       2.10955852
C        1.09294185      -1.90832130       1.31304158
C        0.56559302      -1.07957657       0.17438788
C        2.14637404      -1.05795245       3.56832616
C        2.08066212      -1.03800461       2.07755755
C        2.13385696       0.19979169       1.43469304
C        2.35361769       0.17532884       4.22148472
C        2.08042677       1.33244069       7.77893424
C        2.02728633       1.36996868       6.31140379
C        1.04909158       2.22211868       5.62171864
C        0.93460610       2.18665240       4.26252805
C       -0.15560176       2.48223043       7.90185069
C       -0.18762931       2.63377691       6.34073469
C       -1.47077432       2.19498417       5.77555857
C       -1.49442337       2.14379004       4.35950468
C       -2.20784034       1.07703054       8.01685799
C       -2.27665067       1.06090094       6.44133203
C       -2.57545981      -0.11239157       5.77362408
C       -2.53760542      -0.06135065       4.38190831
C       -1.94112846      -1.35460773       7.90222112
C       -2.06616615      -1.30513218       6.46316453
C       -1.16936758      -2.10569490       5.73853346
C       -1.17504139      -2.06123905       4.29974783
C        0.16397857      -2.49350393       7.81995480
C        0.07012183      -2.48070769       6.38201115
C        1.34448700      -2.06440852       5.67618932
C        1.27594220      -1.99917758       4.27882892
C        2.22941172      -1.11676947       7.79674927
C        2.16754768      -1.07297039       6.37969647
C        2.40749325       0.18527331       5.69482080
C        2.46410324       0.15274206       8.35124337
C        2.13991398       1.26764565      11.96753310
C        2.09552374       1.26075446      10.53862348
C        1.10325039       2.22108340       9.89055744
C        1.07249964       2.09076718       8.53058067
C       -0.00723135       2.41027185      12.07054797
C       -0.09474087       2.43116613      10.63917677
C       -1.37136134       2.13830181      10.00529267
C       -1.38970526       2.17570615       8.65060672
C       -2.00171426       0.97997057      12.08185820
C       -2.22709000       1.13700981      10.65604179
C       -2.53728650      -0.13581904      10.01642063
C       -2.43608347      -0.17858954       8.62400812
C       -1.99257035      -1.43293350      12.07205989
C       -2.00649819      -1.40533120      10.66141821
C       -1.06111355      -2.25822922       9.97558453
C       -1.01591801      -2.19665072       8.50764589
C        0.23087565      -2.47932272      12.04175010
C        0.22469704      -2.52445330      10.61593972
C        1.40730715      -2.06363508       9.89680907
C        1.40195954      -2.14744631       8.49829077
C        2.30229067      -1.18197486      11.98601579
C        2.28587885      -1.16831849      10.57334204
C        2.45106211       0.12224180       9.82070145
C        2.59495866       0.10977422      12.66880645
C        1.35349215       0.68081175      16.06407075
C        2.05676962       1.28375353      14.87015164
C        1.29418782       2.22158850      14.15698145
C        1.29683301       2.17756147      12.70674762
C        0.10218163       1.33007926      16.08519915
C        0.06402260       2.26722700      14.87027632
C       -1.19938676       2.00519202      14.17680773
C       -1.15544221       2.01415720      12.73242656
C       -1.07663102       0.56867633      15.98822302
C       -1.89166417       0.93341676      14.88311554
C       -2.32668083      -0.20910459      14.22650546
C       -2.36371487      -0.22099004      12.79878634
C       -1.00951055      -0.87200083      16.05658139
C       -1.75743783      -1.34594157      14.89930338
C       -0.97988079      -2.28985239      14.24247481
C       -1.03999130      -2.28505560      12.76462172
C        0.20154309      -1.52534266      16.08150726
C        0.27245727      -2.41665035      14.87066821
C        1.50855353      -2.11350764      14.14477159
C        1.44667908      -2.14569350      12.72585716
C        1.45846502      -0.77339559      16.03471346
C        2.16011797      -1.09874434      14.78830076
C        2.57731549       0.11139724      14.10125419
O       -0.16246314       0.65577981       7.28677297
H        0.57064758       0.24026736       6.70327381
H       -1.07167808       0.47596639       6.42274164
99
Lattice="4.199999942576283 0.0 0.0 3.1840816342493553e-16 5.19999992890397 0.0 1.0531962328670942e-15 1.0531962328670942e-15 17.199999764836207" Properties=species:S:1:pos:R:3 ipi_comment="Step:          20  Bead:       0 positions{ase}  cell{ase}" pbc="T T T"
C        1.21448161       0.24848355       0.24756847
C        1.92338927       1.37977478       3.55791043
C        1.92266905       1.41885184       2.15618594
C        0.83566211       2.08201782       1.48655481
C        0.45861311       1.39128538       0.24819012
C       -0.29207761       2.53091149       3.63401856
C       -0.30718199       2.47598383       2.23163512
C       -1.43629214       2.01939698       1.47549095
C       -1.03881155       1.32777789       0.21996641
C       -2.33648971       1.19825453       3.64705094
C       -2.30464016       1.13510884       2.22470540
C       -2.50385493      -0.07399602       1.52521633
C       -1.61279400       0.06093501       0.31134082
C       -2.13210468      -1.28196189       3.61564847
C       -2.16031535      -1.28732327       2.20214712
C       -1.17120105      -1.94692574       1.40860106
C       -0.85386613      -1.11626930       0.21096870
C        0.05547851      -2.42270017       3.58483658
C        0.00003419      -2.35642331       2.10900138
C        1.11965108      -1.90046106       1.31209247
C        0.57337341      -1.07056606       0.18462649
C        2.14786302      -1.06407655       3.56504925
C        2.06706177      -1.03525645       2.07940630
C        2.14225749       0.18933141       1.44392018
C        2.37199402       0.17256059       4.22471052
C        2.08699349       1.34907966       7.78650066
C        2.01664494       1.36245046       6.29005269
C        1.04316055       2.24044080       5.60662131
C        0.92784263       2.19201738       4.26180806
C       -0.16362297       2.48978795       7.90623641
C       -0.18794197       2.65045091       6.30735606