63
Properties=species:S:1:pos:R:3:forces:R:3 energy=-69392.15718366006 stress="inf inf inf inf inf -inf inf -inf inf" free_energy=-69392.15718366006 pbc="F F F"
C       14.16423667       8.86608960       2.02343733      -0.00051854       0.00220933       0.00027041
C       14.00896208       9.86487823       4.19936794      -0.01154658      -0.01233994       0.00842030
O       13.33671658       5.78882082       2.05327445       0.04363461       0.00520277       0.00382802
O       10.57764026       6.19741806       5.90239993      -0.01928182      -0.00541582       0.00444215
C        9.95554405      12.45242910       4.70874955      -0.00661996       0.00322879       0.00443580
C        8.72699974      10.59864148       5.44981116       0.01042728       0.01660399      -0.01101326
C        9.97459301       8.56597268       6.03736384      -0.00352488       0.01304680      -0.00124963
O       10.69100173       4.88624229       3.19290810       0.00406693       0.00964736      -0.00550200
C        9.92539961      11.37012450       5.67639619       0.00700466       0.00929324       0.00571780
O       10.80022039       9.21245986       3.09109369      -0.03467592      -0.03268965       0.00554623
C       12.55051664       8.83094130       6.09651469       0.02185378      -0.00312522      -0.02348155
C       14.45476281       8.57963686       3.50182081      -0.01112252      -0.02968259       0.00557322
C       12.88166458       6.68386458       1.41089180       0.02189667       0.01967138       0.02009134
C       10.08883870       5.77507757       2.67539939      -0.01155268       0.00796513      -0.02152065
H       10.76119002       9.92961405       2.44976585       0.00515921       0.03170998       0.02737142
C        9.90650519       7.12013295       5.55581241       0.00972082       0.03270494      -0.02078694
H       11.70731223       8.90399486       3.02998755      -0.03693099       0.00008254      -0.00976098
C       13.50437083       8.05794181       1.13040341       0.00675978       0.01458318      -0.02170461
C        8.00455842      11.19984540       4.33914227      -0.00860213       0.00397819       0.00503499
C       11.10657191       9.29711310       6.25759703       0.02279635      -0.00886477       0.02264289
C       12.35471767      11.12059749       5.45339536      -0.02735159       0.00725724       0.00613093
C        9.00906988      11.64699191       0.39213173      -0.00893679      -0.01006065      -0.00629608
C        9.07989325      10.44008451      -0.28796095       0.00742309      -0.01977949      -0.00323374
C        8.16594680      11.76754923       1.56881195      -0.00744658      -0.01105485       0.00012688
C        8.77062639      12.34241137       3.88114502      -0.00994275      -0.00283917       0.01554498
C       11.43881627      11.95959829       0.15969028       0.00096281       0.00404855      -0.01204791
C       10.11643858      13.02526147       1.93939121       0.00363882      -0.00298953       0.00790997
C       12.61705197      12.07442907       0.99866939       0.00361851       0.00099816       0.00107429
C       12.52240930      12.64691891       2.25280402       0.00940900      -0.00300605       0.00190400
C        7.39221394       8.94431944       3.59302323       0.01028444       0.00483456      -0.00703327
C       10.36219229       9.95456097      -0.76174350       0.00735949      -0.01259656       0.00068516
C       11.50961281      10.69339134      -0.54404657       0.00134016       0.00962535      -0.00756995
C        7.43050752      10.67796798       2.01104196      -0.00661393      -0.00602295       0.00404760
C        9.11708985       7.09740062       0.94183010      -0.01925410      -0.00025261       0.00703528
C        8.31419671       9.30131089       0.18132426       0.01890148      -0.00078674       0.00658398
C        7.48878278       8.34647833       2.28247130       0.01482635       0.00285524      -0.00211295
C        8.92489996       6.59128281       3.22979486      -0.00865690      -0.00891038      -0.00999613
C       13.22571556      12.04526125       3.37344746       0.00251321      -0.01152390      -0.00057572
C       10.38942878       8.51319678      -0.58096743       0.01839384      -0.01096835       0.02554870
C       12.73358853      10.02167670      -0.13243849      -0.00945408       0.00959738       0.00168051
C       11.55145029       7.87470107      -0.17563270       0.00826936      -0.01430640       0.01834884
C        7.51123017       9.41675707       1.29942040       0.01491136       0.00226764       0.00685959
C        8.78001337       9.22396133       5.59143729       0.00556055       0.00446300      -0.01402348
C        7.35207206      10.39051512       3.42997974      -0.00988236       0.00158248       0.00559281
C       13.41627270      10.87254150       0.81399982      -0.00832969      -0.00170877       0.00811442
C        8.85074022      12.61929090       2.52525067      -0.00133235      -0.00912439       0.00033242
C       11.51065281       6.77363042       0.74388530       0.01233856      -0.03496349       0.00009069
C       11.24573546      13.13539901       2.73723572       0.00832507       0.01227985       0.01089269
C       12.38548607      12.16082619       4.54134134      -0.01045508       0.00707942      -0.01278949
C       10.21474823      12.42462337       0.62111458      -0.00720817      -0.00317102      -0.00833898
C       11.15850955      12.83918127       4.15254531       0.00440666       0.00437203      -0.00057220
C       13.98433053      10.89839299       3.20055522       0.01212379      -0.01239303       0.00149079
C        8.09450688       8.37537072       4.64060302       0.01330466       0.00405522      -0.00719669
C        8.27678582       7.21958185       2.11479951      -0.01376514       0.00408944       0.00066307
C       14.08371082      10.29455727       1.88364837      -0.02143734      -0.00719988       0.01505612
C       12.75686441       8.64781701       0.05376134      -0.00787287       0.01101745      -0.00181239
C       10.31683873       6.39323671       1.29291677      -0.01631138       0.02703777       0.00513828
C        9.13010973       8.11110580      -0.00112510       0.01037471       0.01182437       0.01106167
C        8.83942015       7.16109795       4.46718032       0.00116644       0.00454088       0.00567749
C       13.19892555       9.96940992       5.29960880      -0.01420844       0.01665508      -0.01536684
C       11.09090439      10.71254251       6.03115825      -0.01142330      -0.00901836      -0.01440793
O       14.90200558       7.58844536       3.98966274      -0.00932367      -0.02287617      -0.00673576
O       13.05474220       7.82005617       6.47584072       0.03081010      -0.01273800      -0.03583660
